# vtk DataFile Version 4.0
vtk output
ASCII
DATASET POLYDATA
POINTS 1634 float
34 -4 7.79495 34 -4.39838 8 34.3124 -4 8 
32 -4 7.40028 32 -5 8 30 -4 7.40028 
30 -5 8 28 -4 7.8579 28 -4.2332 8 
27.7928 -4 8 34 -2 7.29415 35.1285 -2 8 
32 -2 7 30 -2 7 28 -2 7.40028 
27.0477 -2 8 36 0 7.92261 36 -0.196907 8 
36.0774 0 8 34 0 7.08593 32 0 7 
30 0 7 28 0 7.40028 27 0 8 
36 2 7.60162 36.3984 2 8 34 2 7 
32 2 7 30 2 7 28 2 7.40028 
27 2 8 36 4 7.92261 36.0774 4 8 
34 4 7.08593 32 4 7 30 4 7 
28 4 7.40028 27.0477 4 8 36 4.16279 8 
34.7795 6 8 34 6 7.53615 32 6 7.08593 
30 6 7.08593 28 6 7.66056 27.4932 6 8 
34 7 8 32.8267 8 8 32 8 7.66056 
30 8 7.66056 29.2341 8 8 28 6.76595 8 
32 8.48333 8 30 8.48333 8 36 -8 9.8579 
36 -8.19708 10 36.1971 -8 10 34 -8 9.40028 
34 -8.82671 10 32 -8 9.40028 32 -8.82671 10 
30 -8 9.40028 30 -8.82671 10 28 -8 9.79495 
28 -8.31235 10 27.6877 -8 10 36 -6 9.31585 
36.8734 -6 10 34 -6 8.70585 32 -6 8.59972 
30 -6 8.59972 28 -6 9 26.6502 -6 10 
36 -4 9.10789 37 -4 10 26 -4 9.29341 
26 -5.12869 10 25.1425 -4 10 36 -2 8.72984 
37.2419 -2 10 26 -2 8.68415 24 -2.4961 10 
24 -2 9.71648 23.6298 -2 10 37.5131 0 10 
26 0 8.59972 24 0 9.40028 23.1733 0 10 
37.6016 2 10 26 2 8.59972 24 2 9.40028 
23.1733 2 10 37.4608 4 10 26 4 8.68415 
24 4 9.71648 23.6298 4 10 36 6 8.85997 
37.1157 6 10 26 6 9 24.7071 6 10 
24 4.66804 10 36 8 9.31585 36.8734 8 10 
34 8 8.46385 28 8 8.54689 26 8 9.63456 
25.5611 8 10 36 10 9.8579 36.1971 10 10 
34 10 9.31585 32 10 9.10789 30 10 9.14674 
28 10 9.77015 27.6395 10 10 26 8.54922 10 
36 10.1971 10 34 10.8734 10 32 10.9634 10 
30 10.8533 10 28 10.2298 10 36 -10 11.5611 
36 -10.4211 12 36.4792 -10 12 34 -10 11 
34 -11 12 32 -10 11 32 -11 12 
30 -10 11 30 -11 12 28 -10 11.1079 
28 -10.9634 12 26 -10 11.7786 26 -10.2807 12 
25.7193 -10 12 38 -8 11.5611 38 -8.47923 12 
38.4211 -8 12 26 -8 11.1079 25.0366 -8 12 
38 -6 11 39 -6 12 26 -6 10.5704 
24.5704 -6 12 38 -4 10.8921 39.2702 -4 12 
24 -4 11.0408 24 -5.22803 12 23.0408 -4 12 
40 -2 11.9226 40 -2.19691 12 40.0774 -2 12 
38 -2 10.6418 22 -2 11.6298 22 -2.4961 12 
21.7165 -2 12 40 0 11.6016 40.3984 0 12 
38 0 10.4516 22 0 11.1733 21.4003 0 12 
40 2 11.6016 40.3984 2 12 38 2 10.3984 
22 2 11.1733 21.4003 2 12 40 4 11.9226 
40.0774 4 12 38 4 10.5393 22 4 11.6298 
21.7165 4 12 40 4.19691 12 39.2702 6 12 
38 6 10.8533 24 6 10.6475 22.7526 6 12 
22 4.56937 12 38 8 11 39 8 12 
24 8 11.5611 23.6346 8 12 38 10 11.4296 
38.5704 10 12 26 10 11.301 25.301 10 12 
24 8.54922 12 38 10.772 12 36 12 11.4296 
36.772 12 12 34 12 11 32 12 11 
30 12 11.3215 28.9367 12 12 28 11.502 12 
26 10.498 12 36 12.5704 12 34 13 12 
32 13 12 30 12.6235 12 36 -12 13.5789 
36 -12.4389 14 36.4792 -12 14 34 -12 13 
34 -13.0366 14 32 -12 13 32 -13.1266 14 
30 -12 13 30 -13.1733 14 28 -12 13 
28 -13.1266 14 26 -12 13.4296 26 -12.5933 14 
25.2663 -12 14 38 -10 13.8498 38 -10.1502 14 
38.1502 -10 14 24 -10 13.5611 24 -10.5798 14 
23.6346 -10 14 40 -8 13.5789 40 -8.47923 14 
40.4389 -8 14 24 -8 13.0366 23.1079 -8 14 
40 -6 13 41 -6 14 24 -6 12.5704 
22.6235 -6 14 40 -4 12.7298 41.1079 -4 14 
22 -4 13.3324 22 -4.86476 14 21.5859 -4 14 
41.3159 -2 14 21.0859 -2 14 41.4003 0 14 
21 0 14 41.4003 2 14 21 2 14 
41.3159 4 14 21.0859 4 14 40 6 12.7298 
41.1079 6 14 22 6 13.1772 21.5362 6 14 
40 8 13.0366 40.8921 8 14 22.4208 8 14 
22 7.08704 14 40 10 13.5611 40.3654 10 14 
24 10 13.4508 23.5611 10 14 40 10.66 14 
38 12 12.9592 39.0936 12 14 28 12 12.7337 
26.7337 12 14 26 11.502 14 24 10.3787 14 
38 13.0936 14 36 14 13.6298 36.5694 14 14 
34 14 13.1733 32 14 13.1733 30 14 13.6298 
29.5039 14 14 28 13 14 36 14.2835 14 
34 14.5997 14 32 14.5997 14 30 14.2835 14 
32 -16 15.5859 32 -16.6344 16 32.7535 -16 16 
30 -16 15.1775 30 -17.5951 16 28 -16 15.5362 
28 -16.7795 16 27.1772 -16 16 36 -14 15.5611 
36 -14.3654 16 36.5798 -14 16 34 -14 14.9234 
34 -15.184 16 32 -14 14.6841 30 -14 14.5997 
28 -14 14.6841 26 -14.9504 16 26 -14 15.2934 
25.1425 -14 16 38 -12 15.2664 38 -12.8575 16 
38.8575 -12 16 24 -12 15.2663 24 -12.7337 16 
23.502 -12 16 40 -10 15.2664 40 -10.8575 16 
40.8575 -10 16 22.5469 -10 16 42 -8 15.6298 
42 -8.4961 16 42.2835 -8 16 22 -8.76595 16 
22 -8 15.5167 21.6606 -8 16 42 -6 15.1733 
42.5997 -6 16 22 -6 14.8166 21.2941 -6 16 
42 -4 15.1376 42.5997 -4 16 21.0859 -4 16 
42 -2 15.0477 42.5997 -2 16 20.9141 -2 16 
42 0 15 42.5997 0 16 20.7059 0 16 
42 2 15 42.5997 2 16 20.5997 2 16 
42 4 15.0477 42.5997 4 16 20.7059 4 16 
42 6 15.1376 42.5997 6 16 21 6 16 
42 8 15.5167 42.3394 8 16 22 8 14.6759 
21.2941 8 16 42 8.91244 16 41.5792 10 16 
22.0147 10 16 22 9.97431 16 40 12 14.8487 
40.9663 12 16 26 12 14.7337 24.7337 12 16 
24 11.4847 16 40 14 15.9331 40.0697 14 16 
38 14 14.816 28 14 15.2663 27.2663 14 16 
26 13 16 40 14.0826 16 38 15.1157 16 
36 15.4119 16 34 15.4436 16 32 15.4003 16 
30 15.209 16 28 14.498 16 44 34 15.7165 
44 33.5695 16 44.4685 34 16 42 34 15.6606 
42 33.4329 16 41.34 34 16 46 36 15.9226 
46 35.8613 16 46.0774 36 16 44 36 15.0859 
42 36 15.0859 40 35.4306 16 40 36 15.7165 
39.6298 36 16 46 38 15.6016 46.3984 38 16 
44 38 15 42 38 15 40 38 15.4003 
39.1376 38 16 46 40 15.6016 46.3984 40 16 
44 40 15 42 40 15 40 40 15.4003 
39.0477 40 16 46 42 15.9226 46.0774 42 16 
44 42 15.0859 42 42 15 40 42 15.4003 
39.0477 42 16 46 42.13 16 44.4438 44 16 
44 44 15.7066 42 44 15.116 40 44 15.4437 
39.2617 44 16 44 44.4305 16 42.7383 46 16 
42 46 15.4259 40 46 15.5484 39.5131 46 16 
42 47.3481 16 40 47.2203 16 32 -18 17.3655 
32 -18.4141 18 32.6676 -18 18 30 -18 16.4049 
30 -18.8225 18 28 -18 17.0182 28 -18.6672 18 
26.3468 -18 18 34 -16 16.9064 34 -17 18 
35.2663 -16 18 26 -16 16.7804 26 -17.7518 18 
24.7804 -16 18 38 -14 17.2663 38 -14.498 18 
38.7337 -14 18 36 -15.502 18 24 -14 17.2663 
24 -14.8228 18 23.502 -14 18 40 -12 17.0408 
40 -12.9592 18 40.9592 -12 18 22.5469 -12 18 
42 -10 17.3324 42 -10.6676 18 42.4141 -10 18 
22 -10.9367 18 22 -10 17.0633 21.5362 -10 18 
42.9141 -8 18 21.0859 -8 18 43 -6 18 
21 -6 18 43 -4 18 21 -4 18 
43 -2 18 20.7059 -2 18 43 0 18 
20 -0.398384 18 20 0 17.6016 19.795 0 18 
43 2 18 20 2 17 19.4003 2 18 
43 4 18 20 4 17.6016 19.795 4 18 
43 6 18 20.7059 6 18 20 4.39838 18 
42.9141 8 18 21 8 18 42 10 16.6759 
42.7058 10 18 22 10 16.0346 21.4437 10 18 
42 12 17.4932 42.3394 12 18 24 12 16.9367 
23.3215 12 18 22 10.7091 18 42 12.7659 18 
41.4347 14 18 26 14 17.5039 25.6298 14 18 
24 12.6235 18 40 16 17.7317 40.2389 16 18 
38 16 16.8533 36 16 16.6344 34 16 16.7091 
32 16 16.8624 30 16 17.5316 29.5316 16 18 
28 15.209 18 26 14.2835 18 40 16.2683 18 
38 17.2702 18 36 17.6698 18 34 17.2702 18 
32 16.8921 18 30 16.2842 18 42 30 17.9226 
42 29.9226 18 42.9394 30 18 41.8613 30 18 
44 32 17 44 30.1403 18 45.2929 32 18 
42 32 16.791 40 31.4508 18 40 32 17.6346 
39.5611 32 18 46 34 17.3655 46 33.1352 18 
46.4141 34 18 40 34 16.7526 38.6475 34 18 
46.9141 36 18 38 36 17.5611 38 35.2341 18 
37.6346 36 18 47 38 18 38 38 16.9234 
36.86 38 18 47 40 18 38 40 16.6841 
36 39.8372 18 36 40 17.9226 35.9226 40 18 
46.9141 42 18 38 42 16.6841 36 42 17.9226 
35.9226 42 18 46 44 17.87 46.0774 44 18 
38 44 17.184 37.1308 44 18 36 42.1387 18 
46 44.0774 18 44 45.5131 18 43.5484 46 18 
38.4141 46 18 38 45.2465 18 42 48 16.8566 
42.3984 48 18 40 48 16.7797 39.5131 48 18 
42 48.3984 18 40 48.4516 18 34 -18 19.3324 
34 -18.4141 20 34.6344 -18 20 32 -18.9141 20 
30 -19 20 28 -19 20 26 -18 18.4137 
26 -18.5563 20 25.2909 -18 20 36 -16 18.8228 
36 -16.8692 20 36.9302 -16 20 24 -16 19.34 
24 -16.4833 20 23.6606 -16 20 40 -14 19.5039 
40 -14.2835 20 40.3702 -14 20 38 -15.2464 20 
22.791 -14 20 42 -12 19.5039 42 -12.3702 20 
42.2835 -12 20 22 -12.5671 20 22 -12 19.2341 
21.6606 -12 20 42.9141 -10 20 21.0859 -10 20 
43 -8 20 21 -8 20 43 -6 20 
21 -6 20 43 -4 20 21 -4 20 
43 -2 20 20.5997 -2 20 43 0 20 
20 -1 20 19.4003 0 20 43 2 20 
19 2 20 43 4 20 19.4003 4 20 
43 6 20 20.5997 6 20 20 5 20 
43 8 20 21 8 20 43 10 20 
21.4003 10 20 42.9141 12 20 23 12 20 
22 10.8267 20 42 14 19.0633 42.4638 14 20 
25.1733 14 20 24 13 20 42 15.087 20 
41.5644 16 20 28.7383 16 20 28 15.4436 20 
26 14.5997 20 40 18 19.5175 40.6041 18 20 
38 18 18.7298 36 18 18.3302 34 18 18.7593 
32 18 19.4494 31.3018 18 20 30 17.14 20 
40 18.6759 20 38 19.2909 20 36 19.3656 20 
34 19.0337 20 32 18.4208 20 46 30 19.5789 
46 29.4673 20 46.4389 30 20 44 30 18.1089 
44 28.505 20 42 28.4869 20 40 30 19.1308 
40 29.027 20 38.7535 30 20 46 32 18.6785 
47.1079 32 20 38 32 19.3765 38 30.8648 20 
37.3215 32 20 47.209 34 20 38 34 18.6785 
36.8921 34 20 47.0859 36 20 36.4208 36 20 
47 38 20 36 36.913 20 36 38 19.2205 
35.5362 38 20 47 40 20 35.0859 40 20 
46.9141 42 20 35.0859 42 20 46.0774 44 20 
36 44 19.6217 35.7763 44 20 46 44.0774 20 
44 45.5131 20 43.5484 46 20 38 46 19.2766 
37.7023 46 20 36 44.2683 20 42.3984 48 20 
39.398 48 20 38 46.3271 20 42 48.3984 20 
40 48.5102 20 36 -18 21.8613 36 -18.0774 22 
36.0774 -18 22 34 -18.9141 22 32 -19 22 
30 -19 22 28 -19 22 26 -18.5997 22 
25.1733 -18 22 37.5131 -16 22 24 -16.8267 22 
23.4003 -16 22 40 -14.5563 22 40.7091 -14 22 
38 -15.5484 22 22.7059 -14 22 42 -12.4833 22 
42.3394 -12 22 22 -12.5997 22 21.6606 -12 22 
42.9141 -10 22 21.0859 -10 22 43 -8 22 
21 -8 22 43 -6 22 21 -6 22 
43 -4 22 21 -4 22 43 -2 22 
20.7059 -2 22 43 0 22 20 -0.398384 22 
19.795 0 22 43 2 22 19.4003 2 22 
43.0859 4 22 19.795 4 22 43.3328 6 22 
20.7059 6 22 20 4.39838 22 43.5484 8 22 
21 8 22 43.6016 10 22 21.4003 10 22 
43.6016 12 22 23 12 22 22 10.8267 22 
43.5131 14 22 25.1733 14 22 24 13 22 
42 16 20.5506 43.2909 16 22 28.4869 16 22 
28 15.5484 22 26 14.5997 22 42 18 20.9663 
43.4932 18 22 30 18 21.7022 29.8527 18 22 
44 20 21.5362 44 18.8267 22 44.7795 20 22 
42 20 21 40 20 20.7059 38 20 20.5563 
36 20 20.5881 34 20 21.1513 32.8228 20 22 
32 19.502 22 30 18.16 22 46 22 21.9226 
46 21.8372 22 46.0774 22 22 44 22 21.0859 
42 22 21 40 22 21 38 22 21 
36 22 21.2941 34.8166 22 22 34 21.1151 22 
46 24 21.6016 46.3984 24 22 44 24 21 
42 24 21 40 24 21 38 24 21 
[...]
POINT_DATA 1634
SCALARS scalars unsigned_short
LOOKUP_TABLE default
1 1 1 1 1 1 1 1 1 
1 1 1 1 1 1 1 1 1 
1 1 1 1 1 1 1 1 1 
1 1 1 1 1 1 1 1 1 
1 1 1 1 1 1 1 1 1 
1 1 1 1 1 1 1 1 1 
1 1 1 1 1 1 1 1 1 
1 1 1 1 1 1 1 1 1 
1 1 1 1 1 1 1 1 1 
1 1 1 1 1 1 1 1 1 
1 1 1 1 1 1 1 1 1 
1 1 1 1 1 1 1 1 1 
1 1 1 1 1 1 1 1 1 
1 1 1 1 1 1 1 1 1 
1 1 1 1 1 1 1 1 1 
1 1 1 1 1 1 1 1 1 
1 1 1 1 1 1 1 1 1 
1 1 1 1 1 1 1 1 1 
1 1 1 1 1 1 1 1 1 
1 1 1 1 1 1 1 1 1 
1 1 1 1 1 1 1 1 1 
1 1 1 1 1 1 1 1 1 
1 1 1 1 1 1 1 1 1 
1 1 1 1 1 1 1 1 1 
1 1 1 1 1 1 1 1 1 
1 1 1 1 1 1 1 1 1 
1 1 1 1 1 1 1 1 1 
1 1 1 1 1 1 1 1 1 
1 1 1 1 1 1 1 1 1 
1 1 1 1 1 1 1 1 1 
1 1 1 1 1 1 1 1 1 
1 1 1 1 1 1 1 1 1 
1 1 1 1 1 1 1 1 1 
1 1 1 1 1 1 1 1 1 
1 1 1 1 1 1 1 1 1 
1 1 1 1 1 1 1 1 1 
1 1 1 1 1 1 1 1 1 
1 1 1 1 1 1 1 1 1 
1 1 1 1 1 1 1 1 1 
1 1 1 1 1 1 1 1 1 
1 1 1 1 1 1 1 1 1 
1 1 1 1 1 1 1 1 1 
1 1 1 1 1 1 1 1 1 
1 1 1 1 1 1 1 1 1 
1 1 1 1 1 1 1 1 1 
1 1 1 1 1 1 1 1 1 
1 1 1 1 1 1 1 1 1 
1 1 1 1 1 1 1 1 1 
1 1 1 1 1 1 1 1 1 
1 1 1 1 1 1 1 1 1 
1 1 1 1 1 1 1 1 1 
1 1 1 1 1 1 1 1 1 
1 1 1 1 1 1 1 1 1 
1 1 1 1 1 1 1 1 1 
1 1 1 1 1 1 1 1 1 
1 1 1 1 1 1 1 1 1 
1 1 1 1 1 1 1 1 1 
1 1 1 1 1 1 1 1 1 
1 1 1 1 1 1 1 1 1 
1 1 1 1 1 1 1 1 1 
1 1 1 1 1 1 1 1 1 
1 1 1 1 1 1 1 1 1 
1 1 1 1 1 1 1 1 1 
1 1 1 1 1 1 1 1 1 
1 1 1 1 1 1 1 1 1 
1 1 1 1 1 1 1 1 1 
1 1 1 1 1 1 1 1 1 
1 1 1 1 1 1 1 1 1 
1 1 1 1 1 1 1 1 1 
1 1 1 1 1 1 1 1 1 
1 1 1 1 1 1 1 1 1 
1 1 1 1 1 1 1 1 1 
1 1 1 1 1 1 1 1 1 
1 1 1 1 1 1 1 1 1 
1 1 1 1 1 1 1 1 1 
1 1 1 1 1 1 1 1 1 
1 1 1 1 1 1 1 1 1 
1 1 1 1 1 1 1 1 1 
1 1 1 1 1 1 1 1 1 
1 1 1 1 1 1 1 1 1 
1 1 1 1 1 1 1 1 1 
1 1 1 1 1 1 1 1 1 
1 1 1 1 1 1 1 1 1 
1 1 1 1 1 1 1 1 1 
1 1 1 1 1 1 1 1 1 
1 1 1 1 1 1 1 1 1 
1 1 1 1 1 1 1 1 1 
1 1 1 1 1 1 1 1 1 
1 1 1 1 1 1 1 1 1 
1 1 1 1 1 1 1 1 1 
1 1 1 1 1 1 1 1 1 
1 1 1 1 1 1 1 1 1 
1 1 1 1 1 1 1 1 1 
1 1 1 1 1 1 1 1 1 
1 1 1 1 1 1 1 1 1 
1 1 1 1 1 1 1 1 1 
1 1 1 1 1 1 1 1 1 
1 1 1 1 1 1 1 1 1 
1 1 1 1 1 1 1 1 1 
1 1 1 1 1 1 1 1 1 
1 1 1 1 1 1 1 1 1 
1 1 1 1 1 1 1 1 1 
1 1 1 1 1 1 1 1 1 
1 1 1 1 1 1 1 1 1 
1 1 1 1 1 1 1 1 1 
1 1 1 1 1 1 1 1 1 
1 1 1 1 1 1 1 1 1 
1 1 1 1 1 1 1 1 1 
1 1 1 1 1 1 1 1 1 
1 1 1 1 1 1 1 1 1 
1 1 1 1 1 1 1 1 1 
1 1 1 1 1 1 1 1 1 
1 1 1 1 1 1 1 1 1 
1 1 1 1 1 1 1 1 1 
1 1 1 1 1 1 1 1 1 
1 1 1 1 1 1 1 1 1 
1 1 1 1 1 1 1 1 1 
1 1 1 1 1 1 1 1 1 
1 1 1 1 1 1 1 1 1 
1 1 1 1 1 1 1 1 1 
1 1 1 1 1 1 1 1 1 
1 1 1 1 1 1 1 1 1 
1 1 1 1 1 1 1 1 1 
1 1 1 1 1 1 1 1 1 
1 1 1 1 1 1 1 1 1 
1 1 1 1 1 1 1 1 1 
1 1 1 1 1 1 1 1 1 
1 1 1 1 1 1 1 1 1 
1 1 1 1 1 1 1 1 1 
1 1 1 1 1 1 1 1 1 
1 1 1 1 1 1 1 1 1 
1 1 1 1 1 1 1 1 1 
1 1 1 1 1 1 1 1 1 
1 1 1 1 1 1 1 1 1 
1 1 1 1 1 1 1 1 1 
1 1 1 1 1 1 1 1 1 
1 1 1 1 1 1 1 1 1 
1 1 1 1 1 1 1 1 1 
1 1 1 1 1 1 1 1 1 
1 1 1 1 1 1 1 1 1 
1 1 1 1 1 1 1 1 1 
1 1 1 1 1 1 1 1 1 
1 1 1 1 1 1 1 1 1 
1 1 1 1 1 1 1 1 1 
1 1 1 1 1 1 1 1 1 
1 1 1 1 1 1 1 1 1 
1 1 1 1 1 1 1 1 1 
1 1 1 1 1 1 1 1 1 
1 1 1 1 1 1 1 1 1 
1 1 1 1 1 1 1 1 1 
1 1 1 1 1 1 1 1 1 
1 1 1 1 1 1 1 1 1 
1 1 1 1 1 1 1 1 1 
1 1 1 1 1 1 1 1 1 
1 1 1 1 1 1 1 1 1 
1 1 1 1 1 1 1 1 1 
1 1 1 1 1 1 1 1 1 
1 1 1 1 1 1 1 1 1 
1 1 1 1 1 1 1 1 1 
1 1 1 1 1 1 1 1 1 
1 1 1 1 1 1 1 1 1 
1 1 1 1 1 1 1 1 1 
1 1 1 1 1 1 1 1 1 
1 1 1 1 1 1 1 1 1 
1 1 1 1 1 1 1 1 1 
1 1 1 1 1 1 1 1 1 
1 1 1 1 1 1 1 1 1 
1 1 1 1 1 1 1 1 1 
1 1 1 1 1 1 1 1 1 
1 1 1 1 1 1 1 1 1 
1 1 1 1 1 1 1 1 1 
1 1 1 1 1 1 1 1 1 
1 1 1 1 1 1 1 1 1 
1 1 1 1 1 1 1 1 1 
1 1 1 1 1 1 1 1 1 
1 1 1 1 1 1 1 1 1 
1 1 1 1 1 1 1 1 1 
1 1 1 1 1 1 1 1 1 
1 1 1 1 1 1 1 1 1 
1 1 1 1 1 1 1 1 1 
1 1 1 1 1 1 1 1 1 
1 1 1 1 1 
NORMALS normals float
-0.387027 0.360476 0.848685 -0.356951 0.378767 0.853886 -0.427229 0.34418 0.836072 
-0.0993378 0.415649 0.904084 -0.0713502 0.487053 0.870453 0.11114 0.415128 0.902949 
0.10372 0.485664 0.867971 0.413694 0.381753 0.826512 0.409163 0.398095 0.82104 
0.43677 0.380294 0.815236 -0.38009 0.191016 0.905011 -0.565597 0.24677 0.786896 
-0.0899297 0.118172 0.988913 0.117826 0.117826 0.986019 0.424925 0.110586 0.898448 
0.508798 0.120954 0.852347 -0.64759 0.23321 0.725425 -0.65388 0.237452 0.718371 
-0.659165 0.232088 0.715288 -0.225583 0.0926701 0.969806 -0.0285475 -0 0.999592 
0.118653 -0 0.992936 0.417715 -0 0.908578 0.488283 0.00782681 0.872651 
-0.624774 -0 0.780806 -0.705376 -0 0.708834 -0.155124 -0 0.987895 
-0 -0 1 0.118653 -0 0.992936 0.417715 -0 0.908578 
0.488283 -0.00782681 0.872651 -0.642229 -0.264533 0.719419 -0.654141 -0.262836 0.709237 
-0.223819 -0.155015 0.962224 -0.0285359 -0.0285359 0.999185 0.118605 -0.028346 0.992537 
0.426559 -0.0679762 0.901902 0.510955 -0.079096 0.855961 -0.64443 -0.272323 0.714528 
-0.488958 -0.357904 0.795503 -0.393894 -0.342192 0.853084 -0.127707 -0.186176 0.974181 
0.156293 -0.185406 0.970153 0.461274 -0.263538 0.847216 0.505053 -0.257037 0.823925 
-0.406182 -0.391369 0.82574 -0.274854 -0.470866 0.838296 -0.183852 -0.480282 0.857629 
0.196691 -0.479066 0.855458 0.291912 -0.475444 0.829904 0.461713 -0.333222 0.822061 
-0.166063 -0.532403 0.830042 0.185928 -0.532186 0.825959 -0.419801 0.436528 0.795745 
-0.416084 0.460908 0.783861 -0.447296 0.430071 0.784197 -0.105126 0.509392 0.854089 
-0.0991849 0.596584 0.796398 -0 0.528153 0.849149 -0 0.605281 0.796012 
0.0928982 0.52587 0.845477 0.0761012 0.603526 0.793704 0.369677 0.454095 0.81064 
0.352482 0.478152 0.804442 0.409936 0.43403 0.802229 -0.508972 0.177668 0.842248 
-0.610474 0.133188 0.780758 -0.194185 0.400589 0.895444 -0.0300076 0.492821 0.869613 
0.100333 0.490555 0.865615 0.402894 0.43403 0.805788 0.5907 0.380655 0.71146 
-0.629645 0.131369 0.765695 -0.658736 0.0732995 0.748795 0.588665 0.384042 0.711326 
0.613448 0.396463 0.683007 0.587205 0.449862 0.672915 -0.673343 0.219326 0.706049 
-0.660304 0.108442 0.743128 0.535105 0.156737 0.830118 0.570012 0.36323 0.736987 
0.555383 0.308118 0.772407 0.581812 0.315371 0.749691 -0.699988 0.0774077 0.709947 
0.492921 0.0222357 0.86979 0.526666 0.0750043 0.846757 0.616208 0.0809461 0.783413 
-0.731721 -0.0128011 0.681484 0.492921 -0.0222357 0.86979 0.526666 -0.0750043 0.846757 
0.616208 -0.0809461 0.783413 -0.728251 -0.108182 0.676718 0.538967 -0.102148 0.83611 
0.564608 -0.254207 0.785237 0.591322 -0.264155 0.761945 -0.637049 -0.26957 0.72215 
-0.69512 -0.12512 0.707921 0.589425 -0.224511 0.775998 0.624042 -0.303929 0.71986 
0.59466 -0.288287 0.750514 -0.539741 -0.220122 0.812543 -0.61992 -0.156533 0.768893 
-0.384281 -0.413997 0.825188 0.427946 -0.437218 0.791014 0.559651 -0.393713 0.729233 
0.586652 -0.39628 0.706259 -0.428599 -0.428599 0.795365 -0.452224 -0.421787 0.785869 
-0.17306 -0.544964 0.820405 -0.0439714 -0.65395 0.755259 0.138134 -0.673124 0.726514 
0.368197 -0.645656 0.668999 0.397347 -0.645991 0.651776 0.558331 -0.452208 0.695539 
-0.421787 -0.452224 0.785869 -0.125082 -0.622728 0.772376 0.00668217 -0.685854 0.727709 
0.150297 -0.714645 0.683149 0.367789 -0.668258 0.646655 -0.414532 0.660347 0.626182 
-0.418749 0.664127 0.619343 -0.481282 0.651363 0.586595 -0.102811 0.68703 0.719318 
-0.108016 0.70297 0.70297 -0 0.690691 0.72315 -0 0.707107 0.707107 
0.0246946 0.69048 0.72293 0.0075854 0.707086 0.707086 0.169263 0.631202 0.756925 
0.119863 0.676737 0.726402 0.458376 0.458376 0.761435 0.442419 0.488044 0.752382 
0.489745 0.443961 0.750366 -0.660347 0.414532 0.626182 -0.651363 0.481282 0.586595 
-0.664127 0.418749 0.619343 0.619969 0.250828 0.743454 0.671179 0.202265 0.713167 
-0.689147 0.126356 0.71352 -0.698072 0.159346 0.698072 0.645283 0.348756 0.67969 
0.664708 0.341068 0.664708 -0.663836 0.0842311 0.74312 -0.68154 0.185098 0.707985 
0.595952 0.501801 0.626927 0.640512 0.42366 0.640512 0.63537 0.508559 0.581096 
-0.685186 0.22292 0.693417 -0.689044 0.224579 0.689044 -0.693692 0.223009 0.684878 
-0.610342 0.10396 0.785287 0.771694 0.324627 0.546906 0.76082 0.374976 0.529666 
0.803407 0.320484 0.501823 -0.678254 0.0680207 0.731672 -0.736718 0.0684898 0.672723 
-0.646185 0.059687 0.760843 0.801955 0.0828619 0.59161 0.886281 0.0785053 0.456446 
-0.679968 -0.067874 0.730094 -0.736718 -0.0684898 0.672723 -0.681407 -0.0197536 0.731638 
0.801955 -0.0828619 0.59161 0.886281 -0.0785053 0.456446 -0.685857 -0.222726 0.692815 
-0.693692 -0.223009 0.684878 -0.677027 -0.103938 0.728582 0.778953 -0.297442 0.552051 
0.810656 -0.294016 0.506351 -0.689044 -0.224579 0.689044 -0.68422 -0.185826 0.705204 
-0.686112 -0.103208 0.720138 0.653068 -0.341117 0.676122 0.721347 -0.395454 0.568572 
0.778967 -0.336316 0.529246 -0.689909 -0.117421 0.714309 -0.704236 -0.136698 0.696681 
0.694652 -0.414143 0.58817 0.710717 -0.421899 0.562922 -0.646516 -0.344859 0.680507 
-0.66382 -0.341837 0.665199 0.509051 -0.668117 0.542666 0.539563 -0.664297 0.517282 
0.680982 -0.465276 0.565492 -0.615472 -0.438729 0.65476 -0.344859 -0.646516 0.680507 
-0.438729 -0.615472 0.65476 -0.0856368 -0.692163 0.716643 0.0605563 -0.701993 0.709605 
0.260193 -0.715703 0.648128 0.380793 -0.723115 0.576282 0.432377 -0.741457 0.513119 
0.490264 -0.720613 0.490264 -0.342811 -0.665712 0.662804 -0.0860936 -0.720465 0.688126 
0.0784145 -0.720924 0.688564 0.295657 -0.707407 0.641999 -0.415456 0.614472 0.670687 
-0.411139 0.616092 0.67186 -0.472834 0.576298 0.666564 -0.10859 0.699125 0.706706 
-0.125156 0.684401 0.718284 -0 0.694715 0.719285 -0.0276262 0.627418 0.778193 
-0 0.690691 0.72315 -0 0.592621 0.805481 0.0860936 0.688126 0.720465 
0.110428 0.623819 0.773729 0.355817 0.640266 0.680774 0.36233 0.638609 0.678893 
0.466517 0.609811 0.640697 -0.575063 0.575063 0.581897 -0.5734 0.566817 0.59155 
-0.566817 0.5734 0.59155 0.711754 0.353571 0.606954 0.694439 0.419065 0.584927 
0.735072 0.361441 0.573611 -0.614472 0.415456 0.670687 -0.576298 0.472834 0.666564 
-0.618289 0.409307 0.670959 0.711766 0.184817 0.677666 0.73805 0.216561 0.639049 
-0.698072 0.159346 0.698072 -0.717293 0.127024 0.685096 0.667051 0.340113 0.662847 
0.716619 0.316826 0.621352 -0.707985 0.185098 0.68154 -0.757269 0.0770624 0.648541 
0.765923 0.4232 0.484008 0.775342 0.364508 0.515731 0.833432 0.359854 0.419399 
-0.830153 0.0725646 0.552793 0.961463 0.164428 0.220346 -0.860916 0.0220088 0.50827 
0.978186 0.0279361 0.205845 -0.860916 -0.0220088 0.50827 0.972234 -0.0277662 0.232358 
-0.830153 -0.0725646 0.552793 0.94897 -0.15288 0.275832 -0.707248 -0.190443 0.680831 
-0.755484 -0.103044 0.647013 0.796968 -0.375881 0.472816 0.855545 -0.324763 0.403203 
-0.719125 -0.153279 0.677764 -0.745414 -0.166689 0.645425 0.767105 -0.389636 0.509641 
0.802031 -0.362468 0.474725 -0.725385 -0.322365 0.608192 -0.740377 -0.328572 0.586414 
0.587476 -0.629245 0.508845 0.602487 -0.613513 0.510502 -0.700598 -0.369568 0.610395 
-0.55236 -0.55236 0.624337 -0.599486 -0.491605 0.631618 0.4716 -0.707507 0.526333 
0.504308 -0.697151 0.509562 0.48661 -0.730892 0.478548 0.560892 -0.66646 0.491153 
-0.483048 -0.598779 0.63885 -0.28941 -0.759472 0.582618 -0.330837 -0.732907 0.594469 
-0.0792606 -0.793508 0.603377 0.0792606 -0.793508 0.603377 0.314831 -0.759859 0.568767 
0.369237 -0.745461 0.554935 0.515352 -0.659936 0.546715 -0.27978 -0.777274 0.563532 
-0.074815 -0.844619 0.530114 0.0750043 -0.846757 0.526666 0.311096 -0.779873 0.543154 
-0.341656 0.495263 0.79874 -0.387438 0.546995 0.742084 -0.394848 0.563197 0.725882 
-0.0100248 0.395037 0.918611 -0.0324746 0.656546 0.753586 0.337429 0.461387 0.820527 
0.357681 0.527735 0.770428 0.429174 0.482769 0.763377 -0.376605 0.70786 0.597582 
-0.397262 0.722173 0.566259 -0.434911 0.692523 0.575556 -0.176403 0.676738 0.714778 
-0.362789 0.660874 0.656985 -0.0778991 0.555464 0.827883 -0 0.492667 0.870218 
0.155366 0.546594 0.822859 0.502626 0.528017 0.684518 0.429101 0.58599 0.687378 
0.547394 0.553685 0.627529 -0.568369 0.509852 0.645762 -0.550036 0.568047 0.612196 
-0.558905 0.536412 0.632367 0.679464 0.512869 0.524684 0.683529 0.513453 0.518801 
0.731169 0.482385 0.482385 -0.509852 0.568369 0.645762 -0.536412 0.558905 0.632367 
-0.572226 0.547741 0.610358 0.79087 0.407321 0.456744 -0.767767 0.327044 0.550978 
-0.751422 0.383747 0.536753 -0.798608 0.323941 0.507236 0.809843 0.342498 0.476288 
0.805838 0.288899 0.516878 0.834824 0.290695 0.46751 -0.811047 0.0874633 0.578406 
-0.886281 0.0785053 0.456446 0.794168 0.280631 0.539022 0.913636 0.162557 0.372619 
-0.827854 0.0215495 0.56053 -0.893781 -0 0.448504 0.978442 0.121039 0.167332 
-0.858408 0.0237897 0.512416 -0.903993 -0 0.427548 0.985039 0.121855 0.121855 
-0.872651 0.00782681 0.488283 -0.908578 -0 0.417715 0.943204 0.0995389 0.316952 
-0.872651 -0.00782681 0.488283 -0.908578 -0 0.417715 0.908578 -0 0.417715 
-0.858408 -0.0237897 0.512416 -0.903993 -0 0.427548 0.932922 -0.123276 0.338318 
-0.825478 -0.078692 0.558921 -0.89176 -0.0672119 0.447489 0.953265 -0.180446 0.242334 
-0.820032 -0.225589 0.525982 -0.848604 -0.232445 0.475227 0.807923 -0.346375 0.476745 
0.904703 -0.25 0.344983 -0.815858 -0.270963 0.510837 -0.79349 -0.304081 0.52717 
0.727876 -0.542166 0.419824 0.731095 -0.538018 0.419567 -0.665568 -0.396284 0.632438 
-0.738336 -0.310928 0.598484 0.509562 -0.697151 0.504308 0.529771 -0.702866 0.474681 
0.527628 -0.725124 0.442496 -0.560358 -0.492585 0.665852 -0.568208 -0.489833 0.661213 
-0.37832 -0.649523 0.65954 0.48541 -0.715399 0.502576 0.502576 -0.715399 0.48541 
0.546715 -0.659936 0.515352 -0.556354 -0.498343 0.664924 -0.229577 -0.685298 0.691131 
-0.073914 -0.765539 0.63913 0.00398246 -0.827271 0.561788 0.0624711 -0.852502 0.518978 
0.228107 -0.857795 0.460602 0.454066 -0.766582 0.454066 -0.275703 0.477156 0.834452 
-0.282372 0.498388 0.81968 -0.36109 0.498683 0.787991 0.215967 0.443942 0.86964 
0.200198 0.471562 0.858807 0.324348 0.454058 0.829837 -0.665155 0.307794 0.680317 
-0.6682 0.322158 0.670614 -0.680317 0.307794 0.665155 -0.194818 0.193309 0.961602 
0.165658 0.18512 0.968653 0.522518 0.337965 0.782787 0.506351 0.294016 0.810656 
0.550362 0.299372 0.779409 -0.651626 0.0757083 0.754753 -0.754752 0.0757083 0.651626 
-0.155063 0.0282022 0.987502 0.118605 0.028346 0.992537 0.447105 0.0789227 0.890993 
0.560836 0.102683 0.821535 -0.651626 -0.0757083 0.754753 -0.754752 -0.0757083 0.651626 
-0.155063 -0.0282022 0.987502 0.118653 -0 0.992936 0.427548 -0 0.903993 
0.512493 0.0163209 0.858536 -0.661929 -0.32171 0.677018 -0.677018 -0.32171 0.661929 
-0.222671 -0.18445 0.957286 0.0905011 -0.0373478 0.995196 0.427517 -0.0119395 0.903928 
0.512134 -0.0408342 0.857935 -0.666931 -0.338791 0.663644 -0.510487 -0.518973 0.685617 
-0.461623 -0.481645 0.744931 -0.0599563 -0.132976 0.989304 0.451506 -0.0398979 0.891376 
0.568902 -0.0945926 0.816947 -0.534051 -0.520863 0.665951 -0.543367 -0.454764 0.70565 
-0.344732 -0.31566 0.884036 0.469816 -0.202548 0.859213 0.597854 -0.231034 0.76759 
-0.421283 -0.580547 0.696768 0.476767 -0.481603 0.735358 -0.416051 0.75258 0.510416 
-0.381892 0.820424 0.425515 -0.450196 0.751759 0.481852 -0.0456232 0.760224 0.648057 
-0.0654021 0.951835 0.299556 0.305885 0.744611 0.593286 0.225263 0.882395 0.41308 
0.502218 0.697728 0.510835 -0.475291 0.641734 0.601894 -0.527901 0.646085 0.551267 
-0.506665 0.693188 0.512621 0.562273 0.487708 0.667825 0.558503 0.64048 0.527124 
0.687189 0.477412 0.547585 -0.510777 0.697759 0.502234 -0.489989 0.748366 0.447056 
-0.519493 0.705383 0.482247 -0.482457 0.736863 0.473571 0.702708 0.500371 0.505797 
0.73324 0.475992 0.485583 0.760105 0.468544 0.45023 -0.569835 0.569835 0.592096 
-0.571204 0.616924 0.541415 -0.619383 0.566475 0.543573 0.798226 0.440254 0.41111 
-0.744588 0.466475 0.477482 -0.749433 0.473588 0.46267 -0.814744 0.409995 0.409995 
0.821399 0.410905 0.395551 0.819017 0.394404 0.416722 0.862114 0.358302 0.358302 
-0.96689 0.165356 0.194372 0.970153 0.156293 0.185406 -0.992537 0.028346 0.118605 
0.995488 0.0284303 0.0905277 -0.992936 -0 0.118653 0.995488 0.0905277 0.0284303 
-0.992936 -0 0.118653 0.943204 0.316952 0.0995389 -0.992936 -0 0.118653 
0.885461 0.351753 0.303691 0.885461 0.303691 0.351753 0.877415 0.339222 0.339222 
-0.992936 -0 0.118653 0.886486 -0 0.462756 0.908578 -0 0.417715 
-0.992936 -0 0.118653 0.883622 -0.306217 0.354179 0.877415 -0.339222 0.339222 
-0.992537 -0.028346 0.118605 0.940562 -0.316064 0.124285 0.884607 -0.351414 0.306559 
-0.977926 -0.0934459 0.186892 0.972936 -0.213466 0.0884768 -0.829613 -0.268493 0.489544 
-0.921722 -0.163995 0.351473 0.731006 -0.541384 0.415371 0.86025 -0.490997 0.137445 
-0.812855 -0.297739 0.500618 -0.839866 -0.292451 0.457272 0.579485 -0.719428 0.382909 
0.655689 -0.70766 0.263229 0.781369 -0.604292 0.155865 -0.811408 -0.34557 0.471378 
-0.767676 -0.427644 0.477278 0.554935 -0.745461 0.369237 0.568767 -0.759859 0.314831 
0.641999 -0.707407 0.295657 -0.532071 -0.590089 0.607203 -0.571304 -0.571853 0.588724 
-0.19887 -0.676017 0.709543 -0.0345644 -0.712128 0.701198 0.0438899 -0.77158 0.634616 
0.117429 -0.805077 0.581431 0.354538 -0.823875 0.44219 0.416552 -0.824054 0.383952 
0.459529 -0.855796 0.237586 0.543154 -0.779873 0.311096 -0.532604 -0.588937 0.607854 
-0.238629 -0.676231 0.69697 -0 -0.69776 0.716332 0.15808 -0.7015 0.694917 
0.21227 -0.753159 0.622651 0.393253 -0.810893 0.433364 0.187962 0.681911 0.706872 
0.188066 0.690397 0.698557 -0.0466411 0.680455 0.731304 0.209385 0.68149 0.701234 
-0.354553 0.489335 0.796771 -0.324522 0.615055 0.718605 -0.595604 0.407905 0.692004 
0.145863 0.498166 0.854725 0.525889 0.473914 0.706291 0.523078 0.435057 0.732882 
0.560123 0.419755 0.71419 -0.7312 0.41145 0.54411 -0.731599 0.377764 0.567501 
-0.801017 0.351279 0.484743 0.550099 0.401447 0.732278 0.666689 0.348842 0.658662 
-0.95466 0.163265 0.248934 0.720435 0.32479 0.612768 0.71447 0.339243 0.611921 
0.737161 0.340139 0.583866 -0.987502 0.0282022 0.155063 0.661305 0.179732 0.728266 
0.706725 0.321696 0.630121 -0.987502 -0.0282022 0.155063 0.553404 0.0553848 0.83107 
0.72585 0.211157 0.654641 0.720226 0.193977 0.666068 0.73165 0.195162 0.653147 
-0.955571 -0.222272 0.193596 0.551202 -0.104797 0.827764 0.71516 -0.226095 0.661383 
0.726558 -0.22678 0.648601 -0.713642 -0.649576 0.262232 -0.724001 -0.646319 0.241027 
0.673092 -0.323645 0.664982 0.669254 -0.444978 0.595058 0.718699 -0.246168 0.650287 
-0.713898 -0.657884 0.239872 -0.702107 -0.692258 0.166809 -0.733136 -0.660715 0.161142 
0.784538 -0.483954 0.387671 0.756525 -0.456049 0.46871 -0.483591 -0.761545 0.431495 
-0.600716 -0.782975 0.161525 0.460007 -0.746197 0.481232 0.572417 -0.792615 0.209998 
-0.486131 -0.858332 0.164143 0.431233 -0.881317 0.193181 -0.477099 0.744344 0.467256 
-0.420374 0.810513 0.407866 -0.492892 0.746625 0.446776 -0.166226 0.971976 0.166226 
-0.0285011 0.997967 0.0570022 0.126798 0.987015 0.0986097 0.551296 0.702581 0.449947 
0.489055 0.856848 0.16321 0.609876 0.77044 0.18567 -0.545342 0.701166 0.459313 
-0.606354 0.658175 0.446252 -0.59473 0.72659 0.344039 0.778804 0.511579 0.362976 
0.788701 0.55188 0.270887 0.811636 0.512664 0.280041 -0.558673 0.746846 0.360702 
-0.546811 0.782048 0.298996 -0.57699 0.759226 0.301095 -0.524486 0.812545 0.254334 
0.858266 0.472743 0.199735 -0.774458 0.539161 0.330937 -0.786869 0.557661 0.264292 
-0.819609 0.511943 0.257209 0.859416 0.471896 0.196768 0.840279 0.458262 0.289701 
0.872551 0.445428 0.200621 -0.97115 0.195228 0.136941 0.974181 0.186176 0.127707 
-0.999185 0.0285359 0.0285359 0.999185 0.0285359 0.0285359 -1 -0 -0 
1 -0 -0 -1 -0 -0 0.992936 0.118653 -0 
-1 -0 -0 0.908578 0.417715 -0 -1 -0 -0 
0.886486 0.462756 -0 0.908578 0.417715 -0 -1 -0 -0 
1 -0 -0 -0.999592 -0 0.0285475 0.908578 -0.417715 -0 
-0.995046 -0 0.0994121 0.908578 -0.417715 -0 0.886486 -0.462756 -0 
-0.984759 -0 0.173924 0.972609 -0.232448 -0 -0.970233 -0.027709 0.240582 
0.888963 -0.457828 0.0117418 -0.934877 -0.15061 0.321436 0.721777 -0.689379 0.0615951 
0.813945 -0.580473 0.0233283 -0.810381 -0.376269 0.449115 -0.83631 -0.317461 0.446995 
0.603377 -0.793508 0.0792606 0.688564 -0.720924 0.0784145 -0.795758 -0.329749 0.507972 
-0.755334 -0.341042 0.559607 0.605449 -0.779458 0.160864 0.55158 -0.829408 0.0885551 
0.530114 -0.844619 0.074815 -0.440379 -0.538793 0.71817 -0.504751 -0.429412 0.748887 
-0.22476 -0.690652 0.687373 0.00256656 -0.716329 0.697758 0.19397 -0.72154 0.664647 