# vtk DataFile Version 4.0
vtk output
ASCII
DATASET POLYDATA
POINTS 3074 float
-34 -24 -18.205 -34 -24.3984 -18 -33.6876 -24 -18 
-36 -24 -18.5997 -36 -25 -18 -38 -24 -18.205 
-38 -24.3984 -18 -38.3984 -24 -18 -34 -22 -18.5997 
-33.1733 -22 -18 -36 -22 -19 -38 -22 -18.5997 
-39 -22 -18 -34 -20 -18.5997 -33.1733 -20 -18 
-36 -20 -19 -38 -20 -18.5997 -39 -20 -18 
-34 -18 -18.3394 -33.5167 -18 -18 -36 -18 -18.8225 
-38 -18 -18.3394 -38.5671 -18 -18 -34 -17.1733 -18 
-35.8878 -16 -18 -36 -16 -18.0313 -36.1122 -16 -18 
-38 -17.1733 -18 -36 -15.9537 -18 -32 -34 -16.1421 
-32 -34.2332 -16 -31.8029 -34 -16 -34 -34 -16.5997 
-34 -35 -16 -36 -34 -16.5997 -36 -34.9523 -16 
-38 -34 -16.2835 -38 -34.3873 -16 -38.4961 -34 -16 
-32 -32 -16.5997 -31.1733 -32 -16 -34 -32 -17 
-36 -32 -17 -38 -32 -16.9141 -40 -32.4961 -16 
-40 -32 -16.2835 -40.3702 -32 -16 -32 -30 -16.5997 
-31.1733 -30 -16 -34 -30 -17 -36 -30 -17 
-38 -30 -17 -40 -30 -16.7059 -41.1834 -30 -16 
-32 -28 -16.5997 -31.1733 -28 -16 -34 -28 -17 
-36 -28 -17 -38 -28 -17 -40 -28 -16.9141 
-42 -28.8648 -16 -42 -28 -16.4141 -42.6344 -28 -16 
-32 -26 -16.6841 -31.1266 -26 -16 -34 -26 -17.2941 
-36 -26 -17.4003 -38 -26 -17.2941 -40 -26 -17.0859 
-42 -26 -16.9141 -44 -26.1387 -16 -44 -26 -16.0774 
-44.0774 -26 -16 -32 -24 -16.8921 -31.0366 -24 -16 
-40 -24 -17.2941 -42 -24 -17 -44 -24 -16.3984 
-44.3984 -24 -16 -32 -22 -17 -31 -22 -16 
-40 -22 -17.4003 -42 -22 -17 -44 -22 -16.3984 
-44.3984 -22 -16 -32 -20 -17 -31 -20 -16 
-40 -20 -17.4003 -42 -20 -17 -44 -20 -16.3984 
-44.3984 -20 -16 -32 -18 -16.8921 -31.0366 -18 -16 
-40 -18 -17.209 -42 -18 -16.7059 -43.8261 -18 -16 
-44 -18.3331 -16 -32 -16 -16.6418 -31.2419 -16 -16 
-34 -16 -17.5362 -38 -16 -17.5362 -40 -16 -16.7536 
-41.3241 -16 -16 -42 -16.6759 -16 -32 -14.5017 -16 
-32.6001 -14 -16 -34 -14 -16.5392 -36 -14 -16.7084 
-38 -14 -16.5392 -39.3999 -14 -16 -40 -14.4311 -16 
-34 -13.4607 -16 -36 -13.2916 -16 -38 -13.4607 -16 
-32 -38 -14.205 -32 -38.3984 -14 -31.6016 -38 -14 
-34 -38 -14.5997 -34 -39 -14 -36 -38 -14.3394 
-36 -38.5997 -14 -36.7659 -38 -14 -32 -36 -15 
-30.4305 -36 -14 -34 -36 -15.4003 -36 -36 -15.3159 
-38 -37.1151 -14 -38 -36 -14.7526 -39.1772 -36 -14 
-30 -34 -14.6235 -30 -35.332 -14 -29.3215 -34 -14 
-40 -34 -15 -40 -35.2663 -14 -41.2663 -34 -14 
-30 -32 -15 -29 -32 -14 -42 -32 -14.6235 
-42 -33.0633 -14 -42.6785 -32 -14 -30 -30 -15 
-29 -30 -14 -42 -30 -15.3765 -43.4296 -30 -14 
-30 -28 -15 -29 -28 -14 -44 -28 -14.8207 
-44 -29.1287 -14 -44.7066 -28 -14 -30 -26 -15 
-29 -26 -14 -45.3159 -26 -14 -30 -24 -15 
-29 -24 -14 -45.4003 -24 -14 -30 -22 -15 
-29 -22 -14 -45.4003 -22 -14 -30 -20 -15 
-29 -20 -14 -45.4003 -20 -14 -30 -18 -15 
-29 -18 -14 -44 -18 -15.8858 -45.1844 -18 -14 
-30 -16 -14.6785 -29.3765 -16 -14 -42 -16 -15.5175 
-44 -16 -14.2683 -44.2389 -16 -14 -30 -15.1151 -14 
-32 -14 -15.5689 -30.9302 -14 -14 -40 -14 -15.6221 
-41.4673 -14 -14 -42 -14.4211 -14 -44 -15.7317 -14 
-32 -13.2464 -14 -34 -12.4141 -14 -36 -12 -14.3271 
-35.2766 -12 -14 -37.2828 -12 -14 -38 -12.1473 -14 
-40 -13 -14 -36 -11.7023 -14 -30 -42 -12.2835 
-30 -42.4305 -12 -29.4306 -42 -12 -32 -42 -12.5997 
-32 -43 -12 -34 -42 -12.5997 -34 -43 -12 
-36 -42 -12.5997 -36 -42.9523 -12 -38 -42 -12.1421 
-38 -42.2072 -12 -38.1971 -42 -12 -28 -40 -12.3394 
-28 -40.66 -12 -27.5167 -40 -12 -30 -40 -13 
-32 -40 -13.2942 -34 -40 -13.4003 -36 -40 -13.2942 
-38 -40 -12.791 -39.2213 -40 -12 -28 -38 -12.5997 
-27.1733 -38 -12 -30 -38 -13.2942 -38 -38 -13.4531 
-40 -38.9367 -12 -40 -38 -12.498 -40.8228 -38 -12 
-28 -36 -12.6841 -27.1266 -36 -12 -30 -36 -13.7165 
-40 -36 -13.502 -42 -36.8849 -12 -42 -36 -12.5469 
-42.8406 -36 -12 -28 -34 -12.8921 -27.0366 -34 -12 
-42 -34 -13.502 -44 -34.4144 -12 -44 -34 -12.2298 
-44.2298 -34 -12 -28 -32 -13 -27 -32 -12 
-44 -32 -12.8533 -44.8533 -32 -12 -28 -30 -13 
-27 -30 -12 -44 -30 -13.4296 -45.3765 -30 -12 
-28 -28 -13 -27 -28 -12 -46 -28 -12.3873 
-46 -28.668 -12 -46.2835 -28 -12 -28 -26 -13 
-27 -26 -12 -46 -26 -12.9523 -46.5997 -26 -12 
-28 -24 -13 -27 -24 -12 -46 -24 -13 
-46.5997 -24 -12 -28 -22 -13 -27 -22 -12 
-46 -22 -13 -46.5997 -22 -12 -28 -20 -13 
-27 -20 -12 -46 -20 -13 -46.5997 -20 -12 
-28 -18 -12.9634 -27.1079 -18 -12 -46 -18 -12.5671 
-46.3394 -18 -12 -28 -16 -12.2807 -27.7786 -16 -12 
-45.4347 -16 -12 -46 -17.2341 -12 -28 -15.7193 -12 
-30 -14 -12.66 -29.5611 -14 -12 -42 -14 -13.4932 
-43.9796 -14 -12 -44 -14.0147 -12 -30 -13.6213 -12 
-32 -12.3787 -12 -34 -12 -13.3656 -32.5492 -12 -12 
-38 -12 -13.84 -40 -12 -12.6801 -40.6801 -12 -12 
-42 -12.9663 -12 -34 -10.8692 -12 -36 -10 -12.2683 
-35.5344 -10 -12 -38 -10 -12.16 -38.2413 -10 -12 
-40 -11.3326 -12 -36 -9.77628 -12 -38 -9.85274 -12 
-32 -46 -10.5563 -32 -46.7091 -10 -30.0346 -46 -10 
-34 -46 -10.5997 -34 -46.8267 -10 -36 -46 -10.2835 
-36 -46.3702 -10 -36.4961 -46 -10 -30 -44 -11 
-30 -45.9796 -10 -28.5068 -44 -10 -32 -44 -11.4003 
-34 -44 -11.4003 -36 -44 -11.3159 -38 -44.8575 -10 
-38 -44 -10.7066 -38.8977 -44 -10 -28 -42 -11.2196 
-28 -43.5208 -10 -26.2482 -42 -10 -40 -42 -10.5704 
-40 -42.772 -10 -40.5933 -42 -10 -26 -40 -10.7091 
-26 -41.5863 -10 -25.4437 -40 -10 -40 -40 -11.3765 
-41.7193 -40 -10 -26 -38 -10.8267 -25.4003 -38 -10 
-42 -38 -11.2474 -42 -39.7056 -10 -43.9821 -38 -10 
-26 -36 -10.8267 -25.4003 -36 -10 -44 -36 -11.0247 
-44 -37.9743 -10 -44.7536 -36 -10 -26 -34 -10.8267 
-25.4003 -34 -10 -45.4531 -34 -10 -26 -32 -10.8267 
-25.4003 -32 -10 -46 -32.7659 -10 -46 -32 -10.4833 
-46.3394 -32 -10 -26 -30 -10.8267 -25.4003 -30 -10 
-46 -30 -11.1834 -46.7058 -30 -10 -26 -28 -10.8267 
-25.4003 -28 -10 -46.9141 -28 -10 -26 -26 -10.8267 
-25.4003 -26 -10 -47 -26 -10 -26 -24 -10.8267 
-25.4003 -24 -10 -47 -24 -10 -26 -22 -10.8267 
-25.4003 -22 -10 -47 -22 -10 -26 -20 -10.8267 
-25.4003 -20 -10 -47 -20 -10 -26 -18 -10.3124 
-25.795 -18 -10 -46.9141 -18 -10 -26 -17.6707 -10 
-27 -16 -10 -46 -16 -10.7659 -46.3394 -16 -10 
-28 -14.7593 -10 -28.7593 -14 -10 -44 -14 -11.9688 
-44.7581 -14 -10 -46 -15.5167 -10 -30 -12.8843 -10 
-32 -12 -11.4932 -30.8843 -12 -10 -41.84 -12 -10 
-42 -12.1473 -10 -44 -13.3582 -10 -32 -10.3576 -10 
-34 -10 -11.027 -32.4608 -10 -10 -40 -10 -10.2413 
-40.16 -10 -10 -34 -9.33282 -10 -36 -9.08593 -10 
-38 -9.08593 -10 -40 -9.85274 -10 -32 -48 -8.48333 
-32 -48.3394 -8 -31.2341 -48 -8 -34 -48 -8.82671 
-34 -48.5997 -8 -36 -48 -8.37022 -36 -48.2835 -8 
-36.4961 -48 -8 -28 -46 -8.08262 -28 -46.0697 -8 
-27.9331 -46 -8 -30 -46 -9.98525 -30 -47.4347 -8 
-38 -46 -8.95923 -38 -46.9592 -8 -38.9592 -46 -8 
-28 -44 -9.56113 -26.6235 -44 -8 -40 -44 -8.89765 
-40 -44.8575 -8 -40.7337 -44 -8 -26 -42 -9.65316 
-26 -43.1417 -8 -25.3328 -42 -8 -42 -42 -8.59326 
-42 -42.618 -8 -42.6674 -42 -8 -25 -40 -8 
-42 -40 -9.77857 -44 -40.4438 -8 -44 -40 -8.37022 
-44.2934 -40 -8 -25 -38 -8 -44 -38 -9.98148 
-44.9713 -38 -8 -25 -36 -8 -45.5362 -36 -8 
-25 -34 -8 -46 -35 -8 -46 -34 -8.93666 
-46.4638 -34 -8 -25 -32 -8 -46.9141 -32 -8 
-25 -30 -8 -47 -30 -8 -25 -28 -8 
-47 -28 -8 -25 -26 -8 -47 -26 -8 
-25 -24 -8 -47 -24 -8 -25 -22 -8 
-47 -22 -8 -25 -20 -8 -47 -20 -8 
-25.4003 -18 -8 -46.9141 -18 -8 -26 -17.0477 -8 
-26.6841 -16 -8 -46.3394 -16 -8 -28 -14 -8.19691 
-27.9226 -14 -8 -44.8116 -14 -8 -46 -15.5167 -8 
-28 -13.9226 -8 -30 -12.4869 -8 -30.4516 -12 -8 
-42 -12 -9.2828 -42.3271 -12 -8 -44 -13.2481 -8 
-32 -10 -9.26853 -31.6016 -10 -8 -40.2683 -10 -8 
-42 -11.7023 -8 -32 -9.60162 -8 -34 -9 -8 
-36 -9 -8 -38 -9.08593 -8 -40 -9.77628 -8 
-30 -48 -6.76594 -30 -48.3394 -6 -29.4932 -48 -6 
-32 -48.9141 -6 -34 -49 -6 -36 -48.9141 -6 
-38 -48 -6.4961 -38 -48.2835 -6 -38.3702 -48 -6 
-28 -46.9663 -6 -26.8931 -46 -6 -40 -46 -6.4961 
-40 -46.3702 -6 -40.2835 -46 -6 -26 -44 -7 
-26 -44.8406 -6 -25.4531 -44 -6 -41.4608 -44 -6 
-24.791 -42 -6 -42 -43.4607 -6 -44 -42 -6.12996 
-44 -42.0774 -6 -44.0774 -42 -6 -24.5997 -40 -6 
-44.9141 -40 -6 -24.5997 -38 -6 -45.1951 -38 -6 
-24.5997 -36 -6 -46 -36.0594 -6 -46 -36 -6.11218 
-46.0313 -36 -6 -24.7059 -34 -6 -46.8225 -34 -6 
-24.9141 -32 -6 -47 -32 -6 -25 -30 -6 
-47 -30 -6 -25 -28 -6 -47 -28 -6 
-25 -26 -6 -47 -26 -6 -25 -24 -6 
-47 -24 -6 -25 -22 -6 -47 -22 -6 
-25 -20 -6 -46.9141 -20 -6 -25.4003 -18 -6 
-46.4638 -18 -6 -26 -17.0477 -6 -26.6841 -16 -6 
-46 -16 -7.23406 -45.4531 -16 -6 -46 -17.0633 -6 
-27.9226 -14 -6 -44.2298 -14 -6 -28 -13.9226 -6 
-30 -12.4869 -6 -30.4516 -12 -6 -42 -12 -7.34224 
-41.301 -12 -6 -42 -12.498 -6 -44 -13.7702 -6 
-31.6016 -10 -6 -40 -10 -7.53438 -39.027 -10 -6 
-40 -10.8692 -6 -32 -9.60162 -6 -34 -9 -6 
-36 -9 -6 -38 -9.33282 -6 -30 -48.3394 -4 
-29.4622 -48 -4 -32 -48.9141 -4 -34 -49 -4 
-36 -48.9141 -4 -38 -48.3394 -4 -38.4833 -48 -4 
-28 -47.1175 -4 -26.3455 -46 -4 -40 -46.7091 -4 
-40.5563 -46 -4 -26 -45.6545 -4 -24.8825 -44 -4 
-41.6016 -44 -4 -24 -42 -4.37378 -24 -42.352 -4 
-23.795 -42 -4 -42 -43.6016 -4 -44 -42.3984 -4 
-44.3984 -42 -4 -24 -40 -5 -23.4003 -40 -4 
-45 -40 -4 -24 -38 -5 -23.4003 -38 -4 
-45.0859 -38 -4 -24 -36 -5 -23.4003 -36 -4 
-46 -36 -5.88782 -45.5362 -36 -4 -24 -34 -4.39838 
-23.795 -34 -4 -46 -34.8267 -4 -46.3394 -34 -4 
-24 -33.6016 -4 -24.7059 -32 -4 -46.5997 -32 -4 
-25 -30 -4 -46.5997 -30 -4 -25 -28 -4 
-46.5997 -28 -4 -25 -26 -4 -46.5997 -26 -4 
-25 -24 -4 -46.5997 -24 -4 -25 -22 -4 
-46.5997 -22 -4 -25.0859 -20 -4 -46.2835 -20 -4 
-25.6606 -18 -4 -46 -18 -5.17717 -45.2474 -18 -4 
-46 -19.4306 -4 -26 -17.4932 -4 -27 -16 -4 
-44.3654 -16 -4 -28 -14.7593 -4 -28 -14 -5.80309 
-28.7593 -14 -4 -44 -14 -5.63953 -42.699 -14 -4 
-44 -15.4508 -4 -30 -12.8843 -4 -30.9605 -12 -4 
-40 -12 -4.54922 -39.4932 -12 -4 -40 -12.3787 -4 
-42 -13.502 -4 -32 -10.4961 -4 -32 -10 -4.85658 
-32.8566 -10 -4 -38 -10 -4.46079 -37.2685 -10 -4 
-38 -10.3576 -4 -34 -9.60162 -4 -36 -9.60162 -4 
-30 -48 -3.34002 -31.4306 -48 -2 -32 -48.2835 -2 
-34 -48.5997 -2 -36 -48.2835 -2 -38 -48 -3.34002 
-36.5694 -48 -2 -28 -46.3654 -2 -27.4508 -46 -2 
-30 -47.2474 -2 -38 -47.2474 -2 -40 -46 -2.03464 
-39.9821 -46 -2 -26 -44.8207 -2 -25.2934 -44 -2 
[...]
POINT_DATA 3074
SCALARS scalars unsigned_short
LOOKUP_TABLE default
1 1 1 1 1 1 1 1 1 
1 1 1 1 1 1 1 1 1 
1 1 1 1 1 1 1 1 1 
1 1 1 1 1 1 1 1 1 
1 1 1 1 1 1 1 1 1 
1 1 1 1 1 1 1 1 1 
1 1 1 1 1 1 1 1 1 
1 1 1 1 1 1 1 1 1 
1 1 1 1 1 1 1 1 1 
1 1 1 1 1 1 1 1 1 
1 1 1 1 1 1 1 1 1 
1 1 1 1 1 1 1 1 1 
1 1 1 1 1 1 1 1 1 
1 1 1 1 1 1 1 1 1 
1 1 1 1 1 1 1 1 1 
1 1 1 1 1 1 1 1 1 
1 1 1 1 1 1 1 1 1 
1 1 1 1 1 1 1 1 1 
1 1 1 1 1 1 1 1 1 
1 1 1 1 1 1 1 1 1 
1 1 1 1 1 1 1 1 1 
1 1 1 1 1 1 1 1 1 
1 1 1 1 1 1 1 1 1 
1 1 1 1 1 1 1 1 1 
1 1 1 1 1 1 1 1 1 
1 1 1 1 1 1 1 1 1 
1 1 1 1 1 1 1 1 1 
1 1 1 1 1 1 1 1 1 
1 1 1 1 1 1 1 1 1 
1 1 1 1 1 1 1 1 1 
1 1 1 1 1 1 1 1 1 
1 1 1 1 1 1 1 1 1 
1 1 1 1 1 1 1 1 1 
1 1 1 1 1 1 1 1 1 
1 1 1 1 1 1 1 1 1 
1 1 1 1 1 1 1 1 1 
1 1 1 1 1 1 1 1 1 
1 1 1 1 1 1 1 1 1 
1 1 1 1 1 1 1 1 1 
1 1 1 1 1 1 1 1 1 
1 1 1 1 1 1 1 1 1 
1 1 1 1 1 1 1 1 1 
1 1 1 1 1 1 1 1 1 
1 1 1 1 1 1 1 1 1 
1 1 1 1 1 1 1 1 1 
1 1 1 1 1 1 1 1 1 
1 1 1 1 1 1 1 1 1 
1 1 1 1 1 1 1 1 1 
1 1 1 1 1 1 1 1 1 
1 1 1 1 1 1 1 1 1 
1 1 1 1 1 1 1 1 1 
1 1 1 1 1 1 1 1 1 
1 1 1 1 1 1 1 1 1 
1 1 1 1 1 1 1 1 1 
1 1 1 1 1 1 1 1 1 
1 1 1 1 1 1 1 1 1 
1 1 1 1 1 1 1 1 1 
1 1 1 1 1 1 1 1 1 
1 1 1 1 1 1 1 1 1 
1 1 1 1 1 1 1 1 1 
1 1 1 1 1 1 1 1 1 
1 1 1 1 1 1 1 1 1 
1 1 1 1 1 1 1 1 1 
1 1 1 1 1 1 1 1 1 
1 1 1 1 1 1 1 1 1 
1 1 1 1 1 1 1 1 1 
1 1 1 1 1 1 1 1 1 
1 1 1 1 1 1 1 1 1 
1 1 1 1 1 1 1 1 1 
1 1 1 1 1 1 1 1 1 
1 1 1 1 1 1 1 1 1 
1 1 1 1 1 1 1 1 1 
1 1 1 1 1 1 1 1 1 
1 1 1 1 1 1 1 1 1 
1 1 1 1 1 1 1 1 1 
1 1 1 1 1 1 1 1 1 
1 1 1 1 1 1 1 1 1 
1 1 1 1 1 1 1 1 1 
1 1 1 1 1 1 1 1 1 
1 1 1 1 1 1 1 1 1 
1 1 1 1 1 1 1 1 1 
1 1 1 1 1 1 1 1 1 
1 1 1 1 1 1 1 1 1 
1 1 1 1 1 1 1 1 1 
1 1 1 1 1 1 1 1 1 
1 1 1 1 1 1 1 1 1 
1 1 1 1 1 1 1 1 1 
1 1 1 1 1 1 1 1 1 
1 1 1 1 1 1 1 1 1 
1 1 1 1 1 1 1 1 1 
1 1 1 1 1 1 1 1 1 
1 1 1 1 1 1 1 1 1 
1 1 1 1 1 1 1 1 1 
1 1 1 1 1 1 1 1 1 
1 1 1 1 1 1 1 1 1 
1 1 1 1 1 1 1 1 1 
1 1 1 1 1 1 1 1 1 
1 1 1 1 1 1 1 1 1 
1 1 1 1 1 1 1 1 1 
1 1 1 1 1 1 1 1 1 
1 1 1 1 1 1 1 1 1 
1 1 1 1 1 1 1 1 1 
1 1 1 1 1 1 1 1 1 
1 1 1 1 1 1 1 1 1 
1 1 1 1 1 1 1 1 1 
1 1 1 1 1 1 1 1 1 
1 1 1 1 1 1 1 1 1 
1 1 1 1 1 1 1 1 1 
1 1 1 1 1 1 1 1 1 
1 1 1 1 1 1 1 1 1 
1 1 1 1 1 1 1 1 1 
1 1 1 1 1 1 1 1 1 
1 1 1 1 1 1 1 1 1 
1 1 1 1 1 1 1 1 1 
1 1 1 1 1 1 1 1 1 
1 1 1 1 1 1 1 1 1 
1 1 1 1 1 1 1 1 1 
1 1 1 1 1 1 1 1 1 
1 1 1 1 1 1 1 1 1 
1 1 1 1 1 1 1 1 1 
1 1 1 1 1 1 1 1 1 
1 1 1 1 1 1 1 1 1 
1 1 1 1 1 1 1 1 1 
1 1 1 1 1 1 1 1 1 
1 1 1 1 1 1 1 1 1 
1 1 1 1 1 1 1 1 1 
1 1 1 1 1 1 1 1 1 
1 1 1 1 1 1 1 1 1 
1 1 1 1 1 1 1 1 1 
1 1 1 1 1 1 1 1 1 
1 1 1 1 1 1 1 1 1 
1 1 1 1 1 1 1 1 1 
1 1 1 1 1 1 1 1 1 
1 1 1 1 1 1 1 1 1 
1 1 1 1 1 1 1 1 1 
1 1 1 1 1 1 1 1 1 
1 1 1 1 1 1 1 1 1 
1 1 1 1 1 1 1 1 1 
1 1 1 1 1 1 1 1 1 
1 1 1 1 1 1 1 1 1 
1 1 1 1 1 1 1 1 1 
1 1 1 1 1 1 1 1 1 
1 1 1 1 1 1 1 1 1 
1 1 1 1 1 1 1 1 1 
1 1 1 1 1 1 1 1 1 
1 1 1 1 1 1 1 1 1 
1 1 1 1 1 1 1 1 1 
1 1 1 1 1 1 1 1 1 
1 1 1 1 1 1 1 1 1 
1 1 1 1 1 1 1 1 1 
1 1 1 1 1 1 1 1 1 
1 1 1 1 1 1 1 1 1 
1 1 1 1 1 1 1 1 1 
1 1 1 1 1 1 1 1 1 
1 1 1 1 1 1 1 1 1 
1 1 1 1 1 1 1 1 1 
1 1 1 1 1 1 1 1 1 
1 1 1 1 1 1 1 1 1 
1 1 1 1 1 1 1 1 1 
1 1 1 1 1 1 1 1 1 
1 1 1 1 1 1 1 1 1 
1 1 1 1 1 1 1 1 1 
1 1 1 1 1 1 1 1 1 
1 1 1 1 1 1 1 1 1 
1 1 1 1 1 1 1 1 1 
1 1 1 1 1 1 1 1 1 
1 1 1 1 1 1 1 1 1 
1 1 1 1 1 1 1 1 1 
1 1 1 1 1 1 1 1 1 
1 1 1 1 1 1 1 1 1 
1 1 1 1 1 1 1 1 1 
1 1 1 1 1 1 1 1 1 
1 1 1 1 1 1 1 1 1 
1 1 1 1 1 1 1 1 1 
1 1 1 1 1 1 1 1 1 
1 1 1 1 1 1 1 1 1 
1 1 1 1 1 1 1 1 1 
1 1 1 1 1 1 1 1 1 
1 1 1 1 1 1 1 1 1 
1 1 1 1 1 1 1 1 1 
1 1 1 1 1 1 1 1 1 
1 1 1 1 1 1 1 1 1 
1 1 1 1 1 1 1 1 1 
1 1 1 1 1 1 1 1 1 
1 1 1 1 1 1 1 1 1 
1 1 1 1 1 1 1 1 1 
1 1 1 1 1 1 1 1 1 
1 1 1 1 1 1 1 1 1 
1 1 1 1 1 1 1 1 1 
1 1 1 1 1 1 1 1 1 
1 1 1 1 1 1 1 1 1 
1 1 1 1 1 1 1 1 1 
1 1 1 1 1 1 1 1 1 
1 1 1 1 1 1 1 1 1 
1 1 1 1 1 1 1 1 1 
1 1 1 1 1 1 1 1 1 
1 1 1 1 1 1 1 1 1 
1 1 1 1 1 1 1 1 1 
1 1 1 1 1 1 1 1 1 
1 1 1 1 1 1 1 1 1 
1 1 1 1 1 1 1 1 1 
1 1 1 1 1 1 1 1 1 
1 1 1 1 1 1 1 1 1 
1 1 1 1 1 1 1 1 1 
1 1 1 1 1 1 1 1 1 
1 1 1 1 1 1 1 1 1 
1 1 1 1 1 1 1 1 1 
1 1 1 1 1 1 1 1 1 
1 1 1 1 1 1 1 1 1 
1 1 1 1 1 1 1 1 1 
1 1 1 1 1 1 1 1 1 
1 1 1 1 1 1 1 1 1 
1 1 1 1 1 1 1 1 1 
1 1 1 1 1 1 1 1 1 
1 1 1 1 1 1 1 1 1 
1 1 1 1 1 1 1 1 1 
1 1 1 1 1 1 1 1 1 
1 1 1 1 1 1 1 1 1 
1 1 1 1 1 1 1 1 1 
1 1 1 1 1 1 1 1 1 
1 1 1 1 1 1 1 1 1 
1 1 1 1 1 1 1 1 1 
1 1 1 1 1 1 1 1 1 
1 1 1 1 1 1 1 1 1 
1 1 1 1 1 1 1 1 1 
1 1 1 1 1 1 1 1 1 
1 1 1 1 1 1 1 1 1 
1 1 1 1 1 1 1 1 1 
1 1 1 1 1 1 1 1 1 
1 1 1 1 1 1 1 1 1 
1 1 1 1 1 1 1 1 1 
1 1 1 1 1 1 1 1 1 
1 1 1 1 1 1 1 1 1 
1 1 1 1 1 1 1 1 1 
1 1 1 1 1 1 1 1 1 
1 1 1 1 1 1 1 1 1 
1 1 1 1 1 1 1 1 1 
1 1 1 1 1 1 1 1 1 
1 1 1 1 1 1 1 1 1 
1 1 1 1 1 1 1 1 1 
1 1 1 1 1 1 1 1 1 
1 1 1 1 1 1 1 1 1 
1 1 1 1 1 1 1 1 1 
1 1 1 1 1 1 1 1 1 
1 1 1 1 1 1 1 1 1 
1 1 1 1 1 1 1 1 1 
1 1 1 1 1 1 1 1 1 
1 1 1 1 1 1 1 1 1 
1 1 1 1 1 1 1 1 1 
1 1 1 1 1 1 1 1 1 
1 1 1 1 1 1 1 1 1 
1 1 1 1 1 1 1 1 1 
1 1 1 1 1 1 1 1 1 
1 1 1 1 1 1 1 1 1 
1 1 1 1 1 1 1 1 1 
1 1 1 1 1 1 1 1 1 
1 1 1 1 1 1 1 1 1 
1 1 1 1 1 1 1 1 1 
1 1 1 1 1 1 1 1 1 
1 1 1 1 1 1 1 1 1 
1 1 1 1 1 1 1 1 1 
1 1 1 1 1 1 1 1 1 
1 1 1 1 1 1 1 1 1 
1 1 1 1 1 1 1 1 1 
1 1 1 1 1 1 1 1 1 
1 1 1 1 1 1 1 1 1 
1 1 1 1 1 1 1 1 1 
1 1 1 1 1 1 1 1 1 
1 1 1 1 1 1 1 1 1 
1 1 1 1 1 1 1 1 1 
1 1 1 1 1 1 1 1 1 
1 1 1 1 1 1 1 1 1 
1 1 1 1 1 1 1 1 1 
1 1 1 1 1 1 1 1 1 
1 1 1 1 1 1 1 1 1 
1 1 1 1 1 1 1 1 1 
1 1 1 1 1 1 1 1 1 
1 1 1 1 1 1 1 1 1 
1 1 1 1 1 1 1 1 1 
1 1 1 1 1 1 1 1 1 
1 1 1 1 1 1 1 1 1 
1 1 1 1 1 1 1 1 1 
1 1 1 1 1 1 1 1 1 
1 1 1 1 1 1 1 1 1 
1 1 1 1 1 1 1 1 1 
1 1 1 1 1 1 1 1 1 
1 1 1 1 1 1 1 1 1 
1 1 1 1 1 1 1 1 1 
1 1 1 1 1 1 1 1 1 
1 1 1 1 1 1 1 1 1 
1 1 1 1 1 1 1 1 1 
1 1 1 1 1 1 1 1 1 
1 1 1 1 1 1 1 1 1 
1 1 1 1 1 1 1 1 1 
1 1 1 1 1 1 1 1 1 
1 1 1 1 1 1 1 1 1 
1 1 1 1 1 1 1 1 1 
1 1 1 1 1 1 1 1 1 
1 1 1 1 1 1 1 1 1 
1 1 1 1 1 1 1 1 1 
1 1 1 1 1 1 1 1 1 
1 1 1 1 1 1 1 1 1 
1 1 1 1 1 1 1 1 1 
1 1 1 1 1 1 1 1 1 
1 1 1 1 1 1 1 1 1 
1 1 1 1 1 1 1 1 1 
1 1 1 1 1 1 1 1 1 
1 1 1 1 1 1 1 1 1 
1 1 1 1 1 1 1 1 1 
1 1 1 1 1 1 1 1 1 
1 1 1 1 1 1 1 1 1 
1 1 1 1 1 1 1 1 1 
1 1 1 1 1 1 1 1 1 
1 1 1 1 1 1 1 1 1 
1 1 1 1 1 1 1 1 1 
1 1 1 1 1 1 1 1 1 
1 1 1 1 1 1 1 1 1 
1 1 1 1 1 1 1 1 1 
1 1 1 1 1 1 1 1 1 
1 1 1 1 1 1 1 1 1 
1 1 1 1 1 1 1 1 1 
1 1 1 1 1 1 1 1 1 
1 1 1 1 1 1 1 1 1 
1 1 1 1 1 1 1 1 1 
1 1 1 1 1 1 1 1 1 
1 1 1 1 1 1 1 1 1 
1 1 1 1 1 1 1 1 1 
1 1 1 1 1 1 1 1 1 
1 1 1 1 1 1 1 1 1 
1 1 1 1 1 1 1 1 1 
1 1 1 1 1 1 1 1 1 
1 1 1 1 1 1 1 1 1 
1 1 1 1 1 1 1 1 1 
1 1 1 1 1 1 1 1 1 
1 1 1 1 1 1 1 1 1 
1 1 1 1 1 1 1 1 1 
1 1 1 1 1 1 1 1 1 
1 1 1 1 1 1 1 1 1 
1 1 1 1 1 1 1 1 1 
1 1 1 1 1 1 1 1 1 
1 1 1 1 1 1 1 1 1 
1 1 1 1 1 
NORMALS normals float
-0.391413 0.331833 0.858302 -0.36213 0.344132 0.866277 -0.432857 0.308353 0.847085 
-0 0.417715 0.908578 -0 0.462756 0.886486 0.339222 0.339222 0.877415 
0.303691 0.351753 0.885461 0.351753 0.303691 0.885461 -0.45569 0.0972204 0.884813 
-0.57887 0.0778265 0.811697 -0 0.118653 0.992936 0.415649 0.0993378 0.904084 
0.461539 0.0724733 0.884155 -0.456835 -0.0668558 0.887036 -0.579657 -0.0578922 0.812801 
-0 -0.0570253 0.998373 0.416739 -0.0683194 0.906455 0.461833 -0.0631228 0.884718 
-0.448234 -0.253332 0.857268 -0.507029 -0.230475 0.830544 -0 -0.259812 0.965659 
0.413343 -0.258054 0.873245 0.437042 -0.240877 0.866587 -0.414644 -0.32181 0.851181 
-0.0186784 -0.508105 0.861093 -0 -0.511069 0.859539 0.0178123 -0.508113 0.861106 
0.385178 -0.326358 0.863208 -0 -0.514291 0.857616 -0.425705 0.379425 0.82147 
-0.42046 0.395848 0.816406 -0.451363 0.374153 0.810112 -0.11114 0.415128 0.902949 
-0.0960098 0.486042 0.868646 0.0798187 0.426184 0.901109 0.103334 0.509817 0.854054 
0.322619 0.491756 0.80876 0.331067 0.525366 0.783828 0.380905 0.513346 0.769017 
-0.455142 0.108776 0.883749 -0.577669 0.100881 0.810013 -0.117826 0.117826 0.986019 
0.028346 0.118605 0.992537 0.193365 0.193365 0.961883 0.516662 0.399407 0.757321 
0.496626 0.348138 0.795087 0.534123 0.359445 0.765188 -0.457859 -0 0.889025 
-0.580631 -0 0.814167 -0.118653 -0 0.992936 -0 -0 1 
0.0905277 0.0284303 0.995488 0.371926 0.173327 0.911937 0.534928 0.304459 0.788135 
-0.457741 0.0227215 0.888795 -0.580606 0.00919007 0.814133 -0.118172 0.0899297 0.988913 
-0 0.118653 0.992936 0.0284303 0.0905277 0.995488 0.167332 0.121039 0.978442 
0.51925 0.375095 0.767908 0.429913 0.357899 0.828905 0.505377 0.407411 0.760665 
-0.515759 0.0746036 0.853479 -0.615721 0.0279556 0.787468 -0.201353 0.31201 0.928497 
-0 0.417715 0.908578 0.0995389 0.316952 0.943204 0.121855 0.121855 0.985039 
0.248934 0.163265 0.95466 0.64073 0.307802 0.703365 0.636419 0.294497 0.712911 
0.649033 0.293641 0.701806 -0.638496 0.0779174 0.765671 -0.681433 0.0252855 0.731444 
0.316952 0.0995389 0.943204 0.240582 0.027709 0.970233 0.623134 0.072398 0.778757 
0.710527 0.0712721 0.700051 -0.69048 0.0246946 0.72293 -0.707086 0.0075854 0.707086 
0.41751 0.0313368 0.908132 0.26652 -0 0.963829 0.624774 -0 0.780806 
0.712338 -0 0.701836 -0.69048 -0.0246946 0.72293 -0.707086 -0.0075854 0.707086 
0.417095 -0.0544983 0.907228 0.265503 -0.087314 0.960148 0.621305 -0.105234 0.77647 
0.708745 -0.100315 0.698296 -0.652193 -0.085377 0.75323 -0.685044 -0.0490366 0.726849 
0.411165 -0.182084 0.89319 0.308702 -0.333739 0.890686 0.564747 -0.394843 0.724679 
0.6027 -0.349096 0.717555 -0.569754 -0.230378 0.788864 -0.645841 -0.21766 0.731788 
-0.3328 -0.407799 0.850261 0.314442 -0.410514 0.855923 0.453796 -0.325667 0.829464 
0.470806 -0.471569 0.74563 0.423042 -0.481081 0.767852 -0.547937 -0.502698 0.668626 
-0.424646 -0.62783 0.652308 -0.195447 -0.651985 0.732609 -0 -0.672845 0.739784 
0.193754 -0.646336 0.738044 0.401378 -0.633278 0.661706 0.486021 -0.554426 0.675571 
-0.194889 -0.730515 0.654497 -0 -0.73078 0.682613 0.190967 -0.715816 0.671668 
-0.327886 0.416205 0.848094 -0.297214 0.419662 0.857641 -0.352517 0.379952 0.855201 
-0.0300076 0.492821 0.869613 -0.0168177 0.512571 0.85848 0.258882 0.490248 0.832248 
0.240456 0.481568 0.842777 0.324775 0.479468 0.81525 -0.380521 0.438547 0.814175 
-0.520302 0.321 0.791356 -0.0783586 0.491527 0.86733 0.151768 0.531585 0.833297 
0.415161 0.493791 0.764076 0.383321 0.562562 0.732523 0.450165 0.516177 0.728637 
-0.636446 0.263989 0.724739 -0.572028 0.292409 0.766342 -0.646621 0.220382 0.730283 
0.524155 0.524155 0.67121 0.490653 0.510709 0.706 0.522463 0.472923 0.709491 
-0.688564 0.0784145 0.720924 -0.705823 0.0602335 0.705823 0.626996 0.359956 0.690875 
0.569676 0.405578 0.714826 0.633562 0.330351 0.699619 -0.690691 -0 0.72315 
-0.707107 -0 0.707107 0.611869 0.357253 0.705681 0.65824 0.357668 0.662415 
-0.690691 -0 0.72315 -0.707107 -0 0.707107 0.648253 0.434171 0.62551 
0.666705 0.387 0.636974 0.697784 0.376731 0.609239 -0.694715 -0 0.719285 
-0.707107 -0 0.707107 0.822255 0.155252 0.547534 -0.703283 -0 0.71091 
-0.707107 -0 0.707107 0.860916 0.0220088 0.50827 -0.707107 -0 0.707107 
-0.707107 -0 0.707107 0.861125 -0 0.508394 -0.707107 -0 0.707107 
-0.707107 -0 0.707107 0.859749 -0.0565098 0.507581 -0.701993 -0.0605563 0.709605 
-0.708794 -0.0770951 0.70119 0.596729 -0.391538 0.700437 0.822401 -0.255359 0.508378 
-0.707466 -0.298055 0.640824 -0.707256 -0.328839 0.625822 0.463375 -0.544073 0.699478 
0.582647 -0.556352 0.592449 0.616236 -0.538052 0.575112 -0.68446 -0.4653 0.561258 
-0.523269 -0.630787 0.572972 -0.593049 -0.681747 0.428385 0.486265 -0.626426 0.609209 
0.488762 -0.685653 0.539437 0.482125 -0.662632 0.573127 0.58341 -0.563443 0.584948 
-0.489661 -0.784267 0.380996 -0.341883 -0.794073 0.502558 -0.0565055 -0.743949 0.665843 
-0.172288 -0.76505 0.620496 0.149268 -0.731148 0.665689 0.264059 -0.718396 0.643568 
0.446871 -0.731191 0.515428 -0.0713152 -0.733024 0.676454 -0.297643 0.487784 0.820655 
-0.304866 0.503584 0.808368 -0.347833 0.502918 0.791256 -0.0776678 0.474493 0.876826 
-0.0858008 0.505063 0.858807 -0 0.493043 0.870005 0.00770058 0.512628 0.858576 
0.107032 0.482057 0.869578 0.119346 0.527679 0.841018 0.411823 0.445958 0.794684 
0.410583 0.463434 0.785271 0.43666 0.444312 0.782249 -0.482357 0.285711 0.828071 
-0.484469 0.365494 0.794798 -0.534226 0.274596 0.7995 -0.26288 0.271523 0.925834 
-0.119751 0.405424 0.906251 -0 0.493043 0.870005 0.169016 0.426871 0.888377 
0.422235 0.318803 0.848577 0.546763 0.3552 0.758211 -0.510316 0.0863634 0.855639 
-0.611129 0.0673158 0.788663 -0.400602 0.194023 0.895473 0.413508 0.429406 0.802883 
0.53293 0.417565 0.735952 0.470011 0.44464 0.762486 0.475182 0.47908 0.738027 
-0.571115 0.0714806 0.817752 -0.646537 0.0280798 0.762365 -0.530797 0.28896 0.796716 
0.45835 0.486848 0.743569 0.470777 0.486663 0.735886 0.464701 0.45386 0.760306 
0.526179 0.447903 0.722855 -0.665229 0.0755903 0.742804 -0.70116 0.0257178 0.71254 
0.513948 0.429325 0.742655 0.651964 0.361453 0.666555 0.653346 0.342465 0.675172 
0.676337 0.341322 0.652739 -0.706901 0.0241471 0.706901 -0.723129 0.0077575 0.69067 
0.671084 0.238344 0.702024 0.712922 0.235459 0.660531 -0.707107 -0 0.707107 
-0.72315 -0 0.690691 0.667051 0.340113 0.662847 0.721728 0.295814 0.625782 
-0.707107 -0 0.707107 -0.72315 -0 0.690691 0.796462 0.28022 0.53584 
0.784315 0.288324 0.549291 0.823523 0.266602 0.500732 -0.707107 -0 0.707107 
-0.72315 -0 0.690691 0.854054 0.103334 0.509817 0.901109 0.0798187 0.426184 
-0.707107 -0 0.707107 -0.72315 -0 0.690691 0.872651 0.00782681 0.488283 
0.908578 -0 0.417715 -0.707107 -0 0.707107 -0.72315 -0 0.690691 
0.872677 -0 0.488297 0.908578 -0 0.417715 -0.707086 -0.0075854 0.707086 
-0.72293 -0.0246946 0.69048 0.870991 -0.0621433 0.487354 0.906455 -0.0683194 0.416739 
-0.726402 -0.119863 0.676737 -0.756925 -0.169263 0.631202 0.846094 -0.257004 0.466983 
0.858326 -0.266994 0.438167 -0.742844 -0.435585 0.508379 -0.750388 -0.451726 0.482557 
0.778307 -0.456506 0.431092 0.829989 -0.338799 0.443097 -0.737318 -0.481228 0.474112 
-0.609744 -0.682212 0.403485 -0.608536 -0.701839 0.370277 0.475794 -0.693182 0.541404 
0.565678 -0.701541 0.433414 0.567925 -0.699896 0.433136 -0.585158 -0.720559 0.372003 
-0.522623 -0.696154 0.492174 -0.391212 -0.747749 0.536493 -0.514066 -0.671014 0.534299 
0.26863 -0.706857 0.654364 0.509106 -0.657914 0.554942 0.55305 -0.660841 0.507371 
0.488718 -0.751811 0.442646 -0.446984 -0.662221 0.601389 -0.184785 -0.781959 0.59531 
-0.248387 -0.767404 0.591096 0.269711 -0.735685 0.621307 0.305544 -0.733301 0.607382 
0.553082 -0.623057 0.553082 -0.18861 -0.805507 0.561769 0.267848 -0.753703 0.600158 
-0.131038 0.556949 0.820145 -0.153872 0.639038 0.753627 -0.416447 0.571155 0.707357 
0.0638696 0.527075 0.847415 0.0578131 0.617203 0.784677 0.308118 0.555383 0.772407 
0.315371 0.581812 0.749691 0.366338 0.569267 0.736024 -0.371452 0.479962 0.79477 
-0.421151 0.569334 0.706039 -0.530992 0.501527 0.683021 -0.100091 0.49426 0.863533 
0.0222357 0.492921 0.86979 0.156737 0.535105 0.830118 0.483662 0.575473 0.659471 
0.425319 0.577016 0.697249 0.524189 0.56635 0.635982 -0.45987 0.526996 0.714699 
-0.538802 0.527694 0.656682 -0.647342 0.510286 0.566176 0.627437 0.411608 0.660986 
0.61712 0.476645 0.626076 0.629513 0.426655 0.649368 -0.77044 0.18567 0.609876 
-0.706456 0.440033 0.554337 -0.856848 0.16321 0.489055 0.595367 0.374976 0.710585 
0.524427 0.470614 0.709577 -0.804493 0.0238512 0.593483 -0.888963 0.0117418 0.457828 
0.464826 0.529069 0.709945 0.505822 0.492272 0.708387 0.640387 0.458745 0.616001 
-0.807037 -0 0.590501 -0.889025 -0 0.457859 0.690377 0.384077 0.613078 
0.643554 0.456491 0.614373 0.802394 0.327831 0.49869 -0.811966 -0 0.583704 
-0.889025 -0 0.457859 0.801353 0.367246 0.472191 -0.814167 -0 0.580631 
-0.889025 -0 0.457859 0.813224 0.33154 0.478276 0.804557 0.289747 0.518396 
0.834824 0.290695 0.46751 -0.814167 -0 0.580631 -0.889025 -0 0.457859 
0.798476 0.262166 0.541946 0.913636 0.162557 0.372619 -0.814167 -0 0.580631 
-0.889025 -0 0.457859 0.976113 0.0932726 0.196226 -0.814167 -0 0.580631 
-0.889025 -0 0.457859 0.992537 0.028346 0.118605 -0.814167 -0 0.580631 
-0.889025 -0 0.457859 0.992936 -0 0.118653 -0.814167 -0 0.580631 
-0.889025 -0 0.457859 0.992936 -0 0.118653 -0.811697 -0.0778265 0.57887 
-0.884813 -0.0972204 0.45569 0.992537 -0.028346 0.118605 -0.833409 -0.352228 0.425869 
-0.844831 -0.371253 0.385269 0.970153 -0.185406 0.156293 -0.834993 -0.407388 0.369894 
-0.779185 -0.574405 0.250858 0.829492 -0.478545 0.28799 0.855458 -0.479066 0.196691 
-0.705861 -0.647822 0.286507 -0.661858 -0.696379 0.277489 0.56807 -0.702303 0.429031 
0.668786 -0.727678 0.152346 0.823333 -0.5358 0.187191 -0.680729 -0.689114 0.248456 
-0.568559 -0.649213 0.505235 -0.714504 -0.611328 0.340238 0.654364 -0.706857 0.26863 
0.642343 -0.719718 0.263441 0.602435 -0.781629 0.161643 -0.61053 -0.637036 0.470572 
-0.371265 -0.752992 0.543291 -0.530959 -0.702772 0.473491 0.607382 -0.733301 0.305544 
0.621307 -0.735685 0.269711 -0.265715 -0.877414 0.399425 -0.073638 -0.975811 0.205842 
0.185902 -0.964822 0.185902 0.600158 -0.753703 0.267848 -0.249122 0.810612 0.529949 
-0.261928 0.842041 0.471552 -0.333352 0.816645 0.471134 0.0238512 0.804493 0.593483 
0.0117418 0.888963 0.457828 0.324627 0.771694 0.546906 0.320484 0.803407 0.501823 
0.379766 0.763003 0.523072 -0.645638 0.589607 0.4853 -0.644209 0.597697 0.477236 
-0.648707 0.591045 0.479422 -0.421378 0.571426 0.704211 -0.447936 0.771197 0.452337 
0.539167 0.584008 0.606823 0.550617 0.627409 0.550617 0.606823 0.584008 0.539167 
-0.576299 0.510033 0.63855 -0.700984 0.509592 0.498937 0.631094 0.569287 0.526908 
0.654709 0.578651 0.486333 0.669175 0.601201 0.436764 -0.700076 0.491032 0.518441 
-0.768062 0.484272 0.419 -0.869168 0.371171 0.32677 0.606539 0.540651 0.58293 
0.622856 0.602369 0.499202 0.606391 0.580679 0.543233 -0.966074 0.0965176 0.239551 
0.513581 0.483346 0.708951 0.699025 0.488647 0.5221 0.685364 0.481234 0.546526 
0.741352 0.451466 0.496563 -0.972609 -0 0.232448 0.64394 0.457221 0.613425 
0.901586 0.325062 0.285444 -0.972609 -0 0.232448 0.870566 0.373938 0.319822 
-0.978568 -0 0.205925 0.860013 0.383052 0.337119 0.832442 0.377221 0.405888 
0.875378 0.351135 0.332292 -0.989217 -0 0.14646 0.970153 0.156293 0.185406 
-0.992936 -0 0.118653 0.995488 0.0284303 0.0905277 -0.992936 -0 0.118653 
0.999592 -0 0.0285475 -0.992936 -0 0.118653 1 -0 -0 
-0.992936 -0 0.118653 1 -0 -0 -0.992936 -0 0.118653 
1 -0 -0 -0.986019 -0.117826 0.117826 0.999185 -0.0285359 -0.0285359 
-0.899566 -0.425454 0.0988414 0.974181 -0.186176 -0.127707 -0.855207 -0.510506 0.0894697 
-0.829773 -0.55254 0.078595 0.855458 -0.479066 -0.196691 -0.696862 -0.696862 0.169609 
-0.70301 -0.694078 0.155027 0.704597 -0.701011 -0.110125 0.824764 -0.533836 -0.186504 
-0.695349 -0.70181 0.154763 -0.709383 -0.699431 0.0870182 -0.758761 -0.644416 0.0949229 
0.666214 -0.731725 0.144007 0.663789 -0.744177 -0.0747332 0.653041 -0.752909 -0.0816476 
-0.626478 -0.693012 0.356734 -0.700904 -0.701049 0.131393 0.59531 -0.781959 -0.184785 
0.675756 -0.732267 -0.0844892 -0.619103 -0.773719 0.134426 -0.154374 -0.983118 0.0982204 
0.0285359 -0.999185 0.0285359 0.205842 -0.975811 -0.0736379 0.561769 -0.805507 -0.18861 
-0.470456 0.831785 0.294628 -0.468717 0.860886 0.197939 -0.514448 0.835311 0.193903 
-0.185406 0.970153 0.156293 -0 0.992936 0.118653 0.194372 0.96689 0.165356 
0.533281 0.777894 0.332405 0.511943 0.819609 0.257209 0.557661 0.786869 0.264292 
-0.620352 0.755109 0.21207 -0.688327 0.661395 0.297929 0.738927 0.571512 0.356877 
0.753873 0.585057 0.298972 0.772485 0.562176 0.29534 -0.755491 0.495766 0.42831 
-0.766549 0.528458 0.364878 -0.812507 0.446139 0.375223 0.72689 0.661814 0.183394 
-0.892381 0.230474 0.387993 0.668223 0.719108 0.190688 0.699586 0.637064 0.323619 
0.699669 0.645316 0.306645 0.709744 0.633592 0.307937 -0.907228 0.0544983 0.417095 
0.943389 0.277444 0.181772 -0.908578 -0 0.417715 0.954217 0.297253 0.0333108 
-0.908132 -0.0313368 0.41751 0.888139 0.459576 0.00047334 0.887714 0.460029 0.0183627 
0.887103 0.461571 -0 -0.943204 -0.0995389 0.316952 0.965214 0.259692 -0.0303642 
-0.990992 -0.0946945 0.0946945 0.994283 0.0567917 -0.0904181 -0.999592 -0.0285475 -0 
0.992936 -0 -0.118653 -1 -0 -0 0.992936 -0 -0.118653 
-1 -0 -0 0.992936 -0 -0.118653 -1 -0 -0 