# vtk DataFile Version 3.0
vtk output
ASCII
DATASET POLYDATA
POINTS 5384 float
-22.1789 -13.9005 -22.086 -22.0852 -14.214 -21.964 -21.7867 -13.8987 -21.9506 
-24.1149 -13.8941 -22.3013 -23.8806 -14.684 -21.9678 -25.7339 -14.0891 -21.9865 
-22.0239 -11.9449 -22.4518 -20.8892 -11.9613 -22.0144 -23.9999 -11.9966 -22.4952 
-25.9335 -13.7739 -22.0139 -25.8908 -11.9954 -22.198 -26.345 -12.0625 -21.8835 
25.8412 -9.95605 -22.6326 26.0273 -11.2978 -21.9814 26.7928 -9.86063 -21.9868 
23.8774 -9.93355 -22.8511 24.1188 -11.2599 -22.0238 21.9199 -9.849 -22.4604 
22.0568 -10.6561 -21.903 21.24 -9.97828 -21.8906 -20.1674 -10.0227 -22.4478 
-20.0182 -10.9984 -21.9979 -19.4255 -9.92421 -21.9575 -22.0752 -9.92886 -22.9886 
-23.9258 -10.0711 -22.7575 -25.8269 -9.99576 -22.1217 -26.2015 -10.0965 -21.8518 
25.9301 -7.99527 -22.8542 27.017 -7.8796 -21.9767 23.9953 -7.99929 -23.4498 
22.0025 -7.99664 -23.3656 20.1123 -8.54214 -21.9693 20.1131 -7.95382 -22.2773 
19.7783 -8.07304 -21.8397 -20.0781 -7.99896 -22.8558 -19.0572 -7.88212 -21.9662 
-22.0012 -8.0009 -23.5837 -23.9923 -8.05353 -22.9232 -25.2939 -8.06163 -22.008 
-26.0108 -9.60631 -21.9032 25.9356 -6.01096 -22.6231 26.8117 -6.01518 -21.9697 
24.0018 -6.0055 -23.2791 22.0784 -6.07547 -23.1851 20.2 -5.99391 -22.2051 
19.8087 -6.09778 -21.8514 -20.0708 -6.03497 -22.5817 -19.314 -6.04873 -21.9616 
-21.9257 -6.07663 -23.4226 -23.8104 -5.98575 -22.5718 -24.6332 -6.07183 -21.8839 
26.0449 -4.4147 -21.9294 24.9662 -3.9357 -21.9432 24.0894 -4.12728 -22.1747 
22.0997 -4.14816 -22.1582 21.5967 -4.0132 -21.8733 20.0366 -5.54372 -21.8898 
-19.9791 -5.06161 -21.9049 -21.6827 -4.01021 -21.893 -21.9447 -4.18467 -22.1066 
-22.2937 -4.11738 -21.9614 -23.9598 -5.15701 -21.8894 23.8558 -3.74134 -21.9185 
22.0336 -3.73577 -21.8747 -22.0497 -3.89672 -21.8021 -24.0802 -21.9044 -20.384 
-24.0428 -22.778 -19.9761 -22.9477 -21.9737 -19.9631 -26.0604 -21.9167 -20.5426 
-25.8784 -23.5631 -19.9961 -27.6949 -22.0596 -20.011 -22.1814 -20.0068 -20.1172 
-22.0142 -20.4725 -19.9027 -21.8723 -19.9494 -19.8944 -24.0791 -19.9252 -20.5338 
-26.0494 -19.9922 -20.5423 -27.8039 -20.1723 -20.0299 -22.1036 -17.9976 -20.4719 
-21.3936 -17.9977 -19.9265 -24.0068 -17.9983 -20.797 -25.9992 -17.9985 -20.7934 
-27.9379 -19.7017 -20.0267 -27.905 -17.9933 -20.2876 -28.4227 -17.9928 -19.8979 
27.8412 -15.9726 -20.8491 27.9716 -17.4107 -19.931 28.8252 -15.9807 -19.9495 
25.8821 -15.9232 -21.0252 26.0256 -17.6349 -19.9263 24.297 -16.0743 -19.947 
-21.9869 -15.9288 -21.1652 -20.1397 -16.0586 -19.9945 -24.0478 -15.9661 -21.3951 
-25.9981 -16.0007 -21.2365 -27.9002 -16.0032 -20.5221 -28.5176 -16.0734 -19.9534 
27.9478 -14.0007 -21.4215 29.4184 -14.0008 -19.956 25.9946 -13.9993 -21.6489 
23.9473 -15.698 -19.9354 23.9552 -13.9861 -20.9677 22.3409 -14.0716 -19.9481 
-20.0921 -14.1169 -20.8637 -19.9625 -15.8358 -19.9535 -19.1961 -13.9957 -19.9528 
-26.0527 -14.0049 -21.8609 -27.8633 -14.0832 -20.4365 -28.3266 -14.0622 -19.8698 
28.0216 -12.0759 -21.1022 29.1398 -12.0035 -19.9438 26.0527 -12.0206 -21.7464 
24.0048 -12.0594 -21.5602 22.0525 -13.6101 -20.0488 22.1154 -12.0845 -20.8866 
21.1471 -12.037 -19.9188 -19.9436 -12.0235 -21.4961 -18.1317 -12.0589 -20.0014 
-27.9291 -12.3111 -20.0562 -27.834 -11.8637 -20.1367 27.9222 -10.1405 -21.0774 
28.979 -10.0043 -19.9394 20.0328 -9.88764 -20.6188 20.1272 -10.4587 -20.0742 
19.7175 -9.91989 -19.9568 -18.0898 -10.1202 -20.7096 -17.9735 -11.8285 -19.9471 
-17.4918 -9.99719 -19.9256 -27.7222 -9.99841 -19.982 27.9853 -8.12063 -20.9915 
28.7592 -8.00385 -19.9276 19.0723 -8.00135 -19.9929 -18.0443 -8.12179 -20.8342 
-17.4261 -8.00328 -19.92 -25.9681 -7.87717 -21.2416 -26.921 -8.11458 -20.0956 
27.9235 -6.07648 -20.7588 28.4704 -6.03857 -19.8402 18.9216 -6.078 -19.9245 
-18.0891 -6.10899 -20.653 -17.5753 -6.04841 -19.8362 -25.9386 -6.08719 -20.2274 
-26.1478 -6.18088 -19.9245 27.884 -4.57694 -20.0724 26.0212 -3.90831 -21.6535 
27.623 -3.91638 -19.933 20.0497 -4.02912 -20.932 19.3754 -4.17389 -20.0183 
-18.1338 -5.06039 -20.0471 -19.9537 -4.04761 -21.0567 -18.8518 -3.97699 -19.8548 
-23.8697 -4.0367 -20.5102 -24.2807 -4.14852 -20.0699 -25.9045 -5.80538 -19.8987 
25.9904 -2.14557 -20.081 26.1126 -2.10916 -19.8147 24.1257 -2.13793 -20.6362 
22.156 -2.08674 -20.524 21.2183 -2.13403 -20.0704 20.0573 -2.96812 -19.9197 
-20.1408 -3.21272 -20.0856 -22.0109 -2.60229 -19.858 -23.9079 -3.75044 -19.9494 
25.8184 -1.94819 -19.8941 23.8814 -1.53221 -19.9088 22.0053 -1.64766 -19.8745 
-40.0542 -53.9982 -18.0408 -39.9748 -54.2313 -17.9444 -39.5943 -53.9522 -17.8969 
-41.4822 -53.9631 -17.8837 -39.9763 -53.755 -17.8534 -24.0427 -23.937 -19.0988 
-24.0157 -25.0251 -17.9183 -22.913 -23.9984 -17.9467 -26.1488 -23.9558 -19.7409 
-25.8856 -25.7145 -18.0354 -28.0897 -23.8591 -18.9033 -27.9409 -24.9671 -17.9306 
-28.9989 -23.9889 -17.9083 -22.0998 -22.0989 -19.2105 -22.0018 -22.9747 -17.8577 
-21.446 -21.8599 -18.0953 -28.0451 -21.9472 -19.8501 -29.8979 -22.5425 -17.9873 
-29.8993 -21.9536 -18.3192 -30.2265 -22.0732 -17.8415 -21.127 -19.9949 -18.0024 
-28.1255 -19.9342 -19.8796 -29.9014 -20.001 -18.6107 -30.4696 -20.1224 -17.9004 
27.8346 -18.0258 -19.2186 27.8936 -18.627 -17.864 28.5084 -17.8797 -18.0971 
26.0475 -18.0373 -19.5348 26.1083 -19.0479 -18.0304 25.0921 -17.9921 -17.9437 
-20.7375 -17.9254 -17.9961 -29.8846 -18.0373 -18.4351 -30.2801 -18.0869 -17.8681 
29.4313 -15.996 -18.0045 23.9883 -16.0166 -19.4434 24.0858 -16.6359 -18.1041 
23.4598 -15.8979 -17.9133 -20.0171 -16.0872 -19.7331 -20.0387 -16.5607 -17.9653 
-19.6499 -15.8549 -18.0778 -29.4691 -15.9854 -18.0544 -29.9904 -17.1926 -17.8762 
29.7633 -13.9999 -18.0011 21.964 -13.936 -19.4993 22.0987 -14.6067 -18.1182 
21.5096 -13.8519 -17.9508 -18.7652 -13.8591 -18.0485 -28.9905 -14.0058 -18.0004 
29.3479 -12 -18.0004 20.6302 -11.9726 -17.9301 -18.0189 -12.0845 -19.7339 
-18.0289 -12.5323 -17.9594 -17.6704 -11.8549 -18.0735 -28.0261 -11.827 -19.8157 
-28.7607 -12.1124 -18.048 29.1399 -10.0001 -18.0002 20.0306 -10.9593 -18.1204 
19.4307 -9.91312 -18.0036 -17.1429 -9.92478 -18.0738 -27.9866 -9.96815 -19.3502 
-28.4683 -10.1551 -17.9768 29.0166 -8.00179 -17.9966 18.779 -7.99528 -18.0009 
-17.0596 -8.00036 -17.9977 -27.3749 -8.03365 -18.1405 -27.9944 -9.13398 -17.8627 
28.6446 -6.07394 -17.88 18.3928 -6.00123 -18.0011 -17.2543 -6.02474 -17.8788 
-26.6139 -6.09411 -17.9994 28.0106 -4.68007 -18.1174 27.5778 -3.95143 -17.9968 
19.06 -4.05351 -18.0002 -18.0009 -4.49241 -18.1149 -18.3963 -3.92429 -17.8802 
-24.7896 -4.06179 -18.1193 -25.981 -5.13156 -17.8785 26.4821 -2.10713 -17.878 
20.9147 -2.02419 -18.1191 20.0266 -2.8168 -17.884 -20.068 -2.58381 -18.1132 
-21.9215 -2.03476 -18.5646 -21.3555 -2.00253 -17.8371 -22.4185 -2.05983 -18.0165 
-23.9387 -3.19647 -17.9499 25.8932 -1.57869 -17.9963 23.9985 -1.09754 -17.9987 
22.0695 -1.35666 -18.001 -22.0316 -1.81215 -17.8757 -42.097 -63.8563 -16.24 
-42.0735 -64.3168 -15.9191 -41.4989 -63.9647 -15.9176 -44.0724 -63.8354 -16.2077 
-43.9492 -64.3798 -15.8359 -44.5317 -64.0082 -15.8987 -40.1856 -62.012 -16.3751 
-40.0272 -62.7022 -15.8903 -39.4838 -61.9566 -15.9152 -42.0787 -61.9244 -16.8835 
-44.0034 -61.9923 -16.8455 -45.8785 -62.4414 -15.9737 -45.9191 -61.951 -16.1689 
-46.2449 -62.0733 -15.8544 -40.0033 -59.9471 -16.8749 -38.4461 -60.0234 -15.9081 
-42.0045 -59.998 -17.1554 -44.0018 -59.9982 -17.0609 -46.0278 -59.975 -16.634 
-47.1418 -60.1731 -15.8948 -38.164 -58.0182 -16.2625 -38.0132 -58.817 -15.8245 
-37.8267 -57.8848 -15.9525 -40.0761 -57.9249 -17.115 -42.0013 -57.9978 -17.4092 
-43.9988 -58.0011 -17.1875 -45.995 -58.0002 -16.8854 -48.0311 -59.0248 -15.9041 
-47.9098 -57.9702 -16.4649 -48.8835 -57.9304 -15.8493 -38.0578 -56.0717 -16.526 
-37.6477 -56.0048 -15.891 -39.9957 -55.915 -17.3668 -42.0007 -55.9985 -17.5954 
-43.9961 -56.0027 -17.3718 -45.9216 -56.0733 -16.9501 -47.811 -55.9969 -16.1985 
-48.2338 -56.1339 -15.9455 -38.128 -54.1261 -17.1241 -37.6161 -54.094 -15.9442 
-42.0447 -54.0032 -17.8515 -43.9246 -54.0759 -17.6128 -45.8931 -54.0286 -16.6197 
-46.7107 -54.1 -15.9527 -47.9957 -55.6629 -15.8239 -38.163 -52.7295 -16.126 
-40.0723 -52.624 -15.9574 -41.9706 -52.1336 -16.354 -41.4019 -52.0508 -15.9269 
-43.9171 -52.1377 -16.674 -44.8848 -52.0898 -16.0027 -45.9266 -53.0131 -15.8312 
-42.1218 -51.7823 -16.0218 -43.8915 -51.4146 -15.9719 -26.1848 -37.8966 -16.0771 
-26.1062 -38.1204 -15.8171 -25.9453 -37.8534 -15.9368 -28.1187 -37.8991 -16.4901 
-28.0037 -38.5647 -15.8938 -29.9787 -37.8609 -16.2078 -29.8688 -38.2068 -15.9507 
-30.3822 -37.9655 -15.8614 -26.1122 -36.0158 -16.3155 -25.6731 -35.9615 -15.8374 
-27.9315 -36.0714 -16.8913 -29.843 -35.966 -16.7566 -31.0457 -36.1354 -15.9045 
-26.0879 -34.5873 -15.9993 -26.7268 -33.9811 -15.9162 -27.9361 -34.1634 -16.3032 
-28.8716 -34.0847 -15.9637 -30.0029 -34.644 -15.8401 -27.958 -33.673 -15.8259 
-24.1673 -26.0007 -16.6567 -24.0645 -26.4104 -15.8381 -23.4565 -25.8602 -16.0738 
-26.1181 -25.9995 -17.6349 -26.0017 -26.8595 -15.9491 -27.9255 -25.9672 -16.5711 
-27.8682 -26.3475 -16.0087 -28.4222 -25.9285 -15.9115 -22.1522 -24.0178 -15.9457 
-29.9768 -23.8858 -16.6195 -29.8661 -24.4129 -16.0749 -30.2766 -23.9121 -15.9574 
26 -21.9386 -16.2615 26 -22.2556 -15.9999 26.2616 -21.9384 -15.9999 
25.7384 -21.9384 -15.9999 -22.0258 -23.6197 -15.975 -21.5848 -21.956 -16.1623 
-30.7628 -21.9967 -15.9958 26 -20.5784 -15.9999 -21.5382 -19.995 -16.088 
-30.7343 -19.9501 -15.9557 27.854 -18.0841 -16.0573 28.0888 -17.8947 -16.1828 
26.0638 -19.609 -16.1661 25.0937 -17.9367 -16.0504 -21.4501 -18.0687 -16.0336 
-30.633 -17.9364 -16.0034 29.0111 -15.9934 -16.1011 24.045 -16.5446 -16.1743 
23.7033 -15.8746 -16.0287 -19.9857 -15.916 -17.1544 -20.6971 -16.0666 -15.98 
-29.953 -15.9729 -16.2379 -30.0527 -16.1586 -16.1167 28.918 -13.9961 -16.076 
22.0479 -14.0781 -16.5742 22.3542 -14.049 -16.0194 -19.9998 -15.1143 -15.9006 
-19.2737 -14.0253 -16.0345 -29.2076 -14.0874 -16.0522 -29.9436 -15.8844 -15.9332 
28.6015 -11.9969 -16.08 21.9636 -13.6093 -16.061 21.1383 -12.0678 -16.1138 
[...]
POINT_DATA 5384
SCALARS scalars unsigned_short
LOOKUP_TABLE default
1 1 1 1 1 1 1 1 1 
1 1 1 1 1 1 1 1 1 
1 1 1 1 1 1 1 1 1 
1 1 1 1 1 1 1 1 1 
1 1 1 1 1 1 1 1 1 
1 1 1 1 1 1 1 1 1 
1 1 1 1 1 1 1 1 1 
1 1 1 1 1 1 1 1 1 
1 1 1 1 1 1 1 1 1 
1 1 1 1 1 1 1 1 1 
1 1 1 1 1 1 1 1 1 
1 1 1 1 1 1 1 1 1 
1 1 1 1 1 1 1 1 1 
1 1 1 1 1 1 1 1 1 
1 1 1 1 1 1 1 1 1 
1 1 1 1 1 1 1 1 1 
1 1 1 1 1 1 1 1 1 
1 1 1 1 1 1 1 1 1 
1 1 1 1 1 1 1 1 1 
1 1 1 1 1 1 1 1 1 
1 1 1 1 1 1 1 1 1 
1 1 1 1 1 1 1 1 1 
1 1 1 1 1 1 1 1 1 
1 1 1 1 1 1 1 1 1 
1 1 1 1 1 1 1 1 1 
1 1 1 1 1 1 1 1 1 
1 1 1 1 1 1 1 1 1 
1 1 1 1 1 1 1 1 1 
1 1 1 1 1 1 1 1 1 
1 1 1 1 1 1 1 1 1 
1 1 1 1 1 1 1 1 1 
1 1 1 1 1 1 1 1 1 
1 1 1 1 1 1 1 1 1 
1 1 1 1 1 1 1 1 1 
1 1 1 1 1 1 1 1 1 
1 1 1 1 1 1 1 1 1 
1 1 1 1 1 1 1 1 1 
1 1 1 1 1 1 1 1 1 
1 1 1 1 1 1 1 1 1 
1 1 1 1 1 1 1 1 1 
1 1 1 1 1 1 1 1 1 
1 1 1 1 1 1 1 1 1 
1 1 1 1 1 1 1 1 1 
1 1 1 1 1 1 1 1 1 
1 1 1 1 1 1 1 1 1 
1 1 1 1 1 1 1 1 1 
1 1 1 1 1 1 1 1 1 
1 1 1 1 1 1 1 1 1 
1 1 1 1 1 1 1 1 1 
1 1 1 1 1 1 1 1 1 
1 1 1 1 1 1 1 1 1 
1 1 1 1 1 1 1 1 1 
1 1 1 1 1 1 1 1 1 
1 1 1 1 1 1 1 1 1 
1 1 1 1 1 1 1 1 1 
1 1 1 1 1 1 1 1 1 
1 1 1 1 1 1 1 1 1 
1 1 1 1 1 1 1 1 1 
1 1 1 1 1 1 1 1 1 
1 1 1 1 1 1 1 1 1 
1 1 1 1 1 1 1 1 1 
1 1 1 1 1 1 1 1 1 
1 1 1 1 1 1 1 1 1 
1 1 1 1 1 1 1 1 1 
1 1 1 1 1 1 1 1 1 
1 1 1 1 1 1 1 1 1 
1 1 1 1 1 1 1 1 1 
1 1 1 1 1 1 1 1 1 
1 1 1 1 1 1 1 1 1 
1 1 1 1 1 1 1 1 1 
1 1 1 1 1 1 1 1 1 
1 1 1 1 1 1 1 1 1 
1 1 1 1 1 1 1 1 1 
1 1 1 1 1 1 1 1 1 
1 1 1 1 1 1 1 1 1 
1 1 1 1 1 1 1 1 1 
1 1 1 1 1 1 1 1 1 
1 1 1 1 1 1 1 1 1 
1 1 1 1 1 1 1 1 1 
1 1 1 1 1 1 1 1 1 
1 1 1 1 1 1 1 1 1 
1 1 1 1 1 1 1 1 1 
1 1 1 1 1 1 1 1 1 
1 1 1 1 1 1 1 1 1 
1 1 1 1 1 1 1 1 1 
1 1 1 1 1 1 1 1 1 
1 1 1 1 1 1 1 1 1 
1 1 1 1 1 1 1 1 1 
1 1 1 1 1 1 1 1 1 
1 1 1 1 1 1 1 1 1 
1 1 1 1 1 1 1 1 1 
1 1 1 1 1 1 1 1 1 
1 1 1 1 1 1 1 1 1 
1 1 1 1 1 1 1 1 1 
1 1 1 1 1 1 1 1 1 
1 1 1 1 1 1 1 1 1 
1 1 1 1 1 1 1 1 1 
1 1 1 1 1 1 1 1 1 
1 1 1 1 1 1 1 1 1 
1 1 1 1 1 1 1 1 1 
1 1 1 1 1 1 1 1 1 
1 1 1 1 1 1 1 1 1 
1 1 1 1 1 1 1 1 1 
1 1 1 1 1 1 1 1 1 
1 1 1 1 1 1 1 1 1 
1 1 1 1 1 1 1 1 1 
1 1 1 1 1 1 1 1 1 
1 1 1 1 1 1 1 1 1 
1 1 1 1 1 1 1 1 1 
1 1 1 1 1 1 1 1 1 
1 1 1 1 1 1 1 1 1 
1 1 1 1 1 1 1 1 1 
1 1 1 1 1 1 1 1 1 
1 1 1 1 1 1 1 1 1 
1 1 1 1 1 1 1 1 1 
1 1 1 1 1 1 1 1 1 
1 1 1 1 1 1 1 1 1 
1 1 1 1 1 1 1 1 1 
1 1 1 1 1 1 1 1 1 
1 1 1 1 1 1 1 1 1 
1 1 1 1 1 1 1 1 1 
1 1 1 1 1 1 1 1 1 
1 1 1 1 1 1 1 1 1 
1 1 1 1 1 1 1 1 1 
1 1 1 1 1 1 1 1 1 
1 1 1 1 1 1 1 1 1 
1 1 1 1 1 1 1 1 1 
1 1 1 1 1 1 1 1 1 
1 1 1 1 1 1 1 1 1 
1 1 1 1 1 1 1 1 1 
1 1 1 1 1 1 1 1 1 
1 1 1 1 1 1 1 1 1 
1 1 1 1 1 1 1 1 1 
1 1 1 1 1 1 1 1 1 
1 1 1 1 1 1 1 1 1 
1 1 1 1 1 1 1 1 1 
1 1 1 1 1 1 1 1 1 
1 1 1 1 1 1 1 1 1 
1 1 1 1 1 1 1 1 1 
1 1 1 1 1 1 1 1 1 
1 1 1 1 1 1 1 1 1 
1 1 1 1 1 1 1 1 1 
1 1 1 1 1 1 1 1 1 
1 1 1 1 1 1 1 1 1 
1 1 1 1 1 1 1 1 1 
1 1 1 1 1 1 1 1 1 
1 1 1 1 1 1 1 1 1 
1 1 1 1 1 1 1 1 1 
1 1 1 1 1 1 1 1 1 
1 1 1 1 1 1 1 1 1 
1 1 1 1 1 1 1 1 1 
1 1 1 1 1 1 1 1 1 
1 1 1 1 1 1 1 1 1 
1 1 1 1 1 1 1 1 1 
1 1 1 1 1 1 1 1 1 
1 1 1 1 1 1 1 1 1 
1 1 1 1 1 1 1 1 1 
1 1 1 1 1 1 1 1 1 
1 1 1 1 1 1 1 1 1 
1 1 1 1 1 1 1 1 1 
1 1 1 1 1 1 1 1 1 
1 1 1 1 1 1 1 1 1 
1 1 1 1 1 1 1 1 1 
1 1 1 1 1 1 1 1 1 
1 1 1 1 1 1 1 1 1 
1 1 1 1 1 1 1 1 1 
1 1 1 1 1 1 1 1 1 
1 1 1 1 1 1 1 1 1 
1 1 1 1 1 1 1 1 1 
1 1 1 1 1 1 1 1 1 
1 1 1 1 1 1 1 1 1 
1 1 1 1 1 1 1 1 1 
1 1 1 1 1 1 1 1 1 
1 1 1 1 1 1 1 1 1 
1 1 1 1 1 1 1 1 1 
1 1 1 1 1 1 1 1 1 
1 1 1 1 1 1 1 1 1 
1 1 1 1 1 1 1 1 1 
1 1 1 1 1 1 1 1 1 
1 1 1 1 1 1 1 1 1 
1 1 1 1 1 1 1 1 1 
1 1 1 1 1 1 1 1 1 
1 1 1 1 1 1 1 1 1 
1 1 1 1 1 1 1 1 1 
1 1 1 1 1 1 1 1 1 
1 1 1 1 1 1 1 1 1 
1 1 1 1 1 1 1 1 1 
1 1 1 1 1 1 1 1 1 
1 1 1 1 1 1 1 1 1 
1 1 1 1 1 1 1 1 1 
1 1 1 1 1 1 1 1 1 
1 1 1 1 1 1 1 1 1 
1 1 1 1 1 1 1 1 1 
1 1 1 1 1 1 1 1 1 
1 1 1 1 1 1 1 1 1 
1 1 1 1 1 1 1 1 1 
1 1 1 1 1 1 1 1 1 
1 1 1 1 1 1 1 1 1 
1 1 1 1 1 1 1 1 1 
1 1 1 1 1 1 1 1 1 
1 1 1 1 1 1 1 1 1 
1 1 1 1 1 1 1 1 1 
1 1 1 1 1 1 1 1 1 
1 1 1 1 1 1 1 1 1 
1 1 1 1 1 1 1 1 1 
1 1 1 1 1 1 1 1 1 
1 1 1 1 1 1 1 1 1 
1 1 1 1 1 1 1 1 1 
1 1 1 1 1 1 1 1 1 
1 1 1 1 1 1 1 1 1 
1 1 1 1 1 1 1 1 1 
1 1 1 1 1 1 1 1 1 
1 1 1 1 1 1 1 1 1 
1 1 1 1 1 1 1 1 1 
1 1 1 1 1 1 1 1 1 
1 1 1 1 1 1 1 1 1 
1 1 1 1 1 1 1 1 1 
1 1 1 1 1 1 1 1 1 
1 1 1 1 1 1 1 1 1 
1 1 1 1 1 1 1 1 1 
1 1 1 1 1 1 1 1 1 
1 1 1 1 1 1 1 1 1 
1 1 1 1 1 1 1 1 1 
1 1 1 1 1 1 1 1 1 
1 1 1 1 1 1 1 1 1 
1 1 1 1 1 1 1 1 1 
1 1 1 1 1 1 1 1 1 
1 1 1 1 1 1 1 1 1 
1 1 1 1 1 1 1 1 1 
1 1 1 1 1 1 1 1 1 
1 1 1 1 1 1 1 1 1 
1 1 1 1 1 1 1 1 1 
1 1 1 1 1 1 1 1 1 
1 1 1 1 1 1 1 1 1 
1 1 1 1 1 1 1 1 1 
1 1 1 1 1 1 1 1 1 
1 1 1 1 1 1 1 1 1 
1 1 1 1 1 1 1 1 1 
1 1 1 1 1 1 1 1 1 
1 1 1 1 1 1 1 1 1 
1 1 1 1 1 1 1 1 1 
1 1 1 1 1 1 1 1 1 
1 1 1 1 1 1 1 1 1 
1 1 1 1 1 1 1 1 1 
1 1 1 1 1 1 1 1 1 
1 1 1 1 1 1 1 1 1 
1 1 1 1 1 1 1 1 1 
1 1 1 1 1 1 1 1 1 
1 1 1 1 1 1 1 1 1 
1 1 1 1 1 1 1 1 1 
1 1 1 1 1 1 1 1 1 
1 1 1 1 1 1 1 1 1 
1 1 1 1 1 1 1 1 1 
1 1 1 1 1 1 1 1 1 
1 1 1 1 1 1 1 1 1 
1 1 1 1 1 1 1 1 1 
1 1 1 1 1 1 1 1 1 
1 1 1 1 1 1 1 1 1 
1 1 1 1 1 1 1 1 1 
1 1 1 1 1 1 1 1 1 
1 1 1 1 1 1 1 1 1 
1 1 1 1 1 1 1 1 1 
1 1 1 1 1 1 1 1 1 
1 1 1 1 1 1 1 1 1 
1 1 1 1 1 1 1 1 1 
1 1 1 1 1 1 1 1 1 
1 1 1 1 1 1 1 1 1 
1 1 1 1 1 1 1 1 1 
1 1 1 1 1 1 1 1 1 
1 1 1 1 1 1 1 1 1 
1 1 1 1 1 1 1 1 1 
1 1 1 1 1 1 1 1 1 
1 1 1 1 1 1 1 1 1 
1 1 1 1 1 1 1 1 1 
1 1 1 1 1 1 1 1 1 
1 1 1 1 1 1 1 1 1 
1 1 1 1 1 1 1 1 1 
1 1 1 1 1 1 1 1 1 
1 1 1 1 1 1 1 1 1 
1 1 1 1 1 1 1 1 1 
1 1 1 1 1 1 1 1 1 
1 1 1 1 1 1 1 1 1 
1 1 1 1 1 1 1 1 1 
1 1 1 1 1 1 1 1 1 
1 1 1 1 1 1 1 1 1 
1 1 1 1 1 1 1 1 1 
1 1 1 1 1 1 1 1 1 
1 1 1 1 1 1 1 1 1 
1 1 1 1 1 1 1 1 1 
1 1 1 1 1 1 1 1 1 
1 1 1 1 1 1 1 1 1 
1 1 1 1 1 1 1 1 1 
1 1 1 1 1 1 1 1 1 
1 1 1 1 1 1 1 1 1 
1 1 1 1 1 1 1 1 1 
1 1 1 1 1 1 1 1 1 
1 1 1 1 1 1 1 1 1 
1 1 1 1 1 1 1 1 1 
1 1 1 1 1 1 1 1 1 
1 1 1 1 1 1 1 1 1 
1 1 1 1 1 1 1 1 1 
1 1 1 1 1 1 1 1 1 
1 1 1 1 1 1 1 1 1 
1 1 1 1 1 1 1 1 1 
1 1 1 1 1 1 1 1 1 
1 1 1 1 1 1 1 1 1 
1 1 1 1 1 1 1 1 1 
1 1 1 1 1 1 1 1 1 
1 1 1 1 1 1 1 1 1 
1 1 1 1 1 1 1 1 1 
1 1 1 1 1 1 1 1 1 
1 1 1 1 1 1 1 1 1 
1 1 1 1 1 1 1 1 1 
1 1 1 1 1 1 1 1 1 
1 1 1 1 1 1 1 1 1 
1 1 1 1 1 1 1 1 1 
1 1 1 1 1 1 1 1 1 
1 1 1 1 1 1 1 1 1 
1 1 1 1 1 1 1 1 1 
1 1 1 1 1 1 1 1 1 
1 1 1 1 1 1 1 1 1 
1 1 1 1 1 1 1 1 1 
1 1 1 1 1 1 1 1 1 
1 1 1 1 1 1 1 1 1 
1 1 1 1 1 1 1 1 1 
1 1 1 1 1 1 1 1 1 
1 1 1 1 1 1 1 1 1 
1 1 1 1 1 1 1 1 1 
1 1 1 1 1 1 1 1 1 
1 1 1 1 1 1 1 1 1 
1 1 1 1 1 1 1 1 1 
1 1 1 1 1 1 1 1 1 
1 1 1 1 1 1 1 1 1 
1 1 1 1 1 1 1 1 1 
1 1 1 1 1 1 1 1 1 
1 1 1 1 1 1 1 1 1 
1 1 1 1 1 1 1 1 1 
1 1 1 1 1 1 1 1 1 
1 1 1 1 1 1 1 1 1 
1 1 1 1 1 1 1 1 1 
1 1 1 1 1 1 1 1 1 
1 1 1 1 1 1 1 1 1 
1 1 1 1 1 1 1 1 1 
1 1 1 1 1 1 1 1 1 
1 1 1 1 1 1 1 1 1 
1 1 1 1 1 1 1 1 1 
1 1 1 1 1 1 1 1 1 
1 1 1 1 1 1 1 1 1 
1 1 1 1 1 1 1 1 1 
1 1 1 1 1 1 1 1 1 
1 1 1 1 1 1 1 1 1 
1 1 1 1 1 1 1 1 1 
1 1 1 1 1 1 1 1 1 
1 1 1 1 1 1 1 1 1 
1 1 1 1 1 1 1 1 1 
1 1 1 1 1 1 1 1 1 
1 1 1 1 1 1 1 1 1 
1 1 1 1 1 1 1 1 1 
1 1 1 1 1 1 1 1 1 
1 1 1 1 1 1 1 1 1 
1 1 1 1 1 1 1 1 1 
1 1 1 1 1 1 1 1 1 
1 1 1 1 1 1 1 1 1 
1 1 1 1 1 1 1 1 1 
1 1 1 1 1 1 1 1 1 
1 1 1 1 1 1 1 1 1 
1 1 1 1 1 1 1 1 1 
1 1 1 1 1 1 1 1 1 
1 1 1 1 1 1 1 1 1 
1 1 1 1 1 1 1 1 1 
1 1 1 1 1 1 1 1 1 
1 1 1 1 1 1 1 1 1 
1 1 1 1 1 1 1 1 1 
1 1 1 1 1 1 1 1 1 
1 1 1 1 1 1 1 1 1 
1 1 1 1 1 1 1 1 1 
1 1 1 1 1 1 1 1 1 
1 1 1 1 1 1 1 1 1 
1 1 1 1 1 1 1 1 1 
1 1 1 1 1 1 1 1 1 
1 1 1 1 1 1 1 1 1 
1 1 1 1 1 1 1 1 1 
1 1 1 1 1 1 1 1 1 
1 1 1 1 1 1 1 1 1 
1 1 1 1 1 1 1 1 1 
1 1 1 1 1 1 1 1 1 
1 1 1 1 1 1 1 1 1 
1 1 1 1 1 1 1 1 1 
1 1 1 1 1 1 1 1 1 
1 1 1 1 1 1 1 1 1 
1 1 1 1 1 1 1 1 1 
1 1 1 1 1 1 1 1 1 
1 1 1 1 1 1 1 1 1 
1 1 1 1 1 1 1 1 1 
1 1 1 1 1 1 1 1 1 
1 1 1 1 1 1 1 1 1 
1 1 1 1 1 1 1 1 1 
1 1 1 1 1 1 1 1 1 
1 1 1 1 1 1 1 1 1 
1 1 1 1 1 1 1 1 1 
1 1 1 1 1 1 1 1 1 
1 1 1 1 1 1 1 1 1 
1 1 1 1 1 1 1 1 1 
1 1 1 1 1 1 1 1 1 
1 1 1 1 1 1 1 1 1 
1 1 1 1 1 1 1 1 1 
1 1 1 1 1 1 1 1 1 
1 1 1 1 1 1 1 1 1 
1 1 1 1 1 1 1 1 1 
1 1 1 1 1 1 1 1 1 
1 1 1 1 1 1 1 1 1 
1 1 1 1 1 1 1 1 1 
1 1 1 1 1 1 1 1 1 
1 1 1 1 1 1 1 1 1 
1 1 1 1 1 1 1 1 1 
1 1 1 1 1 1 1 1 1 
1 1 1 1 1 1 1 1 1 
1 1 1 1 1 1 1 1 1 
1 1 1 1 1 1 1 1 1 
1 1 1 1 1 1 1 1 1 
1 1 1 1 1 1 1 1 1 
1 1 1 1 1 1 1 1 1 
1 1 1 1 1 1 1 1 1 
1 1 1 1 1 1 1 1 1 
1 1 1 1 1 1 1 1 1 
1 1 1 1 1 1 1 1 1 
1 1 1 1 1 1 1 1 1 
1 1 1 1 1 1 1 1 1 
1 1 1 1 1 1 1 1 1 
1 1 1 1 1 1 1 1 1 
1 1 1 1 1 1 1 1 1 
1 1 1 1 1 1 1 1 1 
1 1 1 1 1 1 1 1 1 
1 1 1 1 1 1 1 1 1 
1 1 1 1 1 1 1 1 1 
1 1 1 1 1 1 1 1 1 
1 1 1 1 1 1 1 1 1 
1 1 1 1 1 1 1 1 1 
1 1 1 1 1 1 1 1 1 
1 1 1 1 1 1 1 1 1 
1 1 1 1 1 1 1 1 1 
1 1 1 1 1 1 1 1 1 
1 1 1 1 1 1 1 1 1 
1 1 1 1 1 1 1 1 1 
1 1 1 1 1 1 1 1 1 
1 1 1 1 1 1 1 1 1 
1 1 1 1 1 1 1 1 1 
1 1 1 1 1 1 1 1 1 
1 1 1 1 1 1 1 1 1 
1 1 1 1 1 1 1 1 1 
1 1 1 1 1 1 1 1 1 
1 1 1 1 1 1 1 1 1 
1 1 1 1 1 1 1 1 1 
1 1 1 1 1 1 1 1 1 
1 1 1 1 1 1 1 1 1 
1 1 1 1 1 1 1 1 1 
1 1 1 1 1 1 1 1 1 
1 1 1 1 1 1 1 1 1 
1 1 1 1 1 1 1 1 1 
1 1 1 1 1 1 1 1 1 
1 1 1 1 1 1 1 1 1 
1 1 1 1 1 1 1 1 1 
1 1 1 1 1 1 1 1 1 
1 1 1 1 1 1 1 1 1 
1 1 1 1 1 1 1 1 1 
1 1 1 1 1 1 1 1 1 
1 1 1 1 1 1 1 1 1 
1 1 1 1 1 1 1 1 1 
1 1 1 1 1 1 1 1 1 
1 1 1 1 1 1 1 1 1 
1 1 1 1 1 1 1 1 1 
1 1 1 1 1 1 1 1 1 
1 1 1 1 1 1 1 1 1 
1 1 1 1 1 1 1 1 1 
1 1 1 1 1 1 1 1 1 
1 1 1 1 1 1 1 1 1 
1 1 1 1 1 1 1 1 1 
1 1 1 1 1 1 1 1 1 
1 1 1 1 1 1 1 1 1 
1 1 1 1 1 1 1 1 1 
1 1 1 1 1 1 1 1 1 
1 1 1 1 1 1 1 1 1 
1 1 1 1 1 1 1 1 1 
1 1 1 1 1 1 1 1 1 
1 1 1 1 1 1 1 1 1 
1 1 1 1 1 1 1 1 1 
1 1 1 1 1 1 1 1 1 
1 1 1 1 1 1 1 1 1 
1 1 1 1 1 1 1 1 1 
1 1 1 1 1 1 1 1 1 
1 1 1 1 1 1 1 1 1 
1 1 1 1 1 1 1 1 1 
1 1 1 1 1 1 1 1 1 
1 1 1 1 1 1 1 1 1 
1 1 1 1 1 1 1 1 1 
1 1 1 1 1 1 1 1 1 
1 1 1 1 1 1 1 1 1 
1 1 1 1 1 1 1 1 1 
1 1 1 1 1 1 1 1 1 
1 1 1 1 1 1 1 1 1 
1 1 1 1 1 1 1 1 1 
1 1 1 1 1 1 1 1 1 
1 1 1 1 1 1 1 1 1 
1 1 1 1 1 1 1 1 1 
1 1 1 1 1 1 1 1 1 
1 1 1 1 1 1 1 1 1 
1 1 1 1 1 1 1 1 1 
1 1 1 1 1 1 1 1 1 
1 1 1 1 1 1 1 1 1 
1 1 1 1 1 1 1 1 1 
1 1 1 1 1 1 1 1 1 
1 1 1 1 1 1 1 1 1 
1 1 1 1 1 1 1 1 1 
1 1 1 1 1 1 1 1 1 
1 1 1 1 1 1 1 1 1 
1 1 1 1 1 1 1 1 1 
1 1 1 1 1 1 1 1 1 
1 1 1 1 1 1 1 1 1 
1 1 1 1 1 1 1 1 1 
1 1 1 1 1 1 1 1 1 
1 1 1 1 1 1 1 1 1 
1 1 1 1 1 1 1 1 1 
1 1 1 1 1 1 1 1 1 
1 1 1 1 1 1 1 1 1 
1 1 1 1 1 1 1 1 1 
1 1 1 1 1 1 1 1 1 
1 1 1 1 1 1 1 1 1 
1 1 1 1 1 1 1 1 1 
1 1 1 1 1 1 1 1 1 
1 1 1 1 1 1 1 1 1 
1 1 1 1 1 1 1 1 1 
1 1 1 1 1 1 1 1 1 
1 1 1 1 1 1 1 1 1 
1 1 1 1 1 1 1 1 1 
1 1 1 1 1 1 1 1 1 
1 1 1 1 1 1 1 1 1 
1 1 1 1 1 1 1 1 1 
1 1 1 1 1 1 1 1 1 
1 1 1 1 1 1 1 1 1 
1 1 1 1 1 1 1 1 1 
1 1 1 1 1 1 1 1 1 
1 1 1 1 1 1 1 1 1 
1 1 1 1 1 1 1 1 1 
1 1 1 1 1 1 1 1 1 
1 1 1 1 1 1 1 1 1 
1 1 1 1 1 1 1 1 1 
1 1 1 1 1 1 1 1 1 
1 1 1 1 1 1 1 1 1 
1 1 1 1 1 1 1 1 1 
1 1 1 1 1 1 1 1 1 
1 1 1 1 1 1 1 1 1 
1 1 1 1 1 1 1 1 1 
1 1 1 1 1 1 1 1 1 
1 1 1 1 1 1 1 1 1 
1 1 1 1 1 1 1 1 1 
1 1 1 1 1 1 1 1 1 
1 1 1 1 1 1 1 1 1 
1 1 1 1 1 1 1 1 1 
1 1 1 1 1 1 1 1 1 
1 1 1 1 1 1 1 1 1 
1 1 1 1 1 1 1 1 1 
1 1 1 1 1 1 1 1 1 
1 1 1 1 1 1 1 1 1 
1 1 1 1 1 1 1 1 1 
1 1 1 1 1 1 1 1 1 
1 1 1 1 1 1 1 1 1 
1 1 1 1 1 1 1 1 1 
1 1 1 1 1 1 1 1 1 
1 1 1 1 1 1 1 1 1 
1 1 1 1 1 1 1 1 1 
1 1 1 1 1 1 1 1 1 
1 1 1 1 1 1 1 1 1 
1 1 1 1 1 1 1 1 1 
1 1 1 1 1 1 1 1 1 
1 1 1 1 1 1 1 1 1 
1 1 1 1 1 1 1 1 1 
1 1 1 1 1 1 1 1 1 
1 1 1 1 1 1 1 1 1 
1 1 1 1 1 1 1 1 1 
1 1 1 1 1 1 1 1 1 
1 1 1 1 1 1 1 1 1 
1 1 1 1 1 1 1 1 1 
1 1 1 1 1 1 1 1 1 
1 1 1 1 1 1 1 1 1 
1 1 1 1 1 1 1 1 1 
1 1 1 1 1 1 1 1 1 
1 1 1 1 1 1 1 1 1 
1 1 1 1 1 1 1 1 1 
1 1 1 1 1 1 1 1 1 
1 1 1 1 1 1 1 1 1 
1 1 1 1 1 1 1 1 1 
1 1 1 1 1 1 1 1 1 
1 1 1 1 1 1 1 1 1 
1 1 1 1 1 1 1 1 1 
1 1 1 1 1 1 1 1 1 
1 1 1 1 1 1 1 1 1 
1 1 1 1 1 1 1 1 1 
1 1 1 1 1 1 1 1 1 
1 1 
NORMALS normals float
-0.324736 0.325214 0.888134 -0.321301 0.331685 0.88699 -0.337551 0.325906 0.883088 
0.0148205 0.302765 0.95295 0.00526022 0.357894 0.933747 0.382316 0.253417 0.888603 
-0.228464 0.264089 0.937049 -0.37943 0.307929 0.872475 0.0647557 0.135597 0.988646 
0.396843 0.240302 0.885873 0.457416 0.0208013 0.88901 0.514431 0.0127668 0.857437 
-0.417304 0.276529 0.865673 -0.195435 0.249134 0.948545 -0.543054 0.174985 0.821263 
0.0518044 0.492159 0.868963 0.142636 0.488293 0.860944 0.365823 0.564357 0.74005 
0.381725 0.563258 0.732821 0.470863 0.564812 0.677699 -0.48243 0.294274 0.825024 
-0.490265 0.313655 0.81318 -0.547426 0.260737 0.795198 -0.0914867 0.356704 0.929727 
0.252581 0.137117 0.957811 0.543547 -0.183375 0.819103 0.556274 -0.185317 0.810072 
-0.537783 -0.00592032 0.843062 -0.661998 -0.00142097 0.749504 -0.165692 0.137896 0.976489 
0.282544 0.185224 0.941202 0.741373 0.291295 0.604578 0.742021 0.222878 0.632242 
0.774439 0.225808 0.590978 -0.589802 0.0562338 0.805587 -0.68348 0.0180671 0.729746 
-0.0211416 0.177183 0.983951 0.528452 -0.0363679 0.848184 0.634919 -0.231592 0.737051 
0.562308 -0.19816 0.802834 -0.524229 -0.226901 0.820792 -0.622449 -0.18813 0.759714 
-0.15836 -0.3424 0.926112 0.287532 -0.347036 0.892688 0.693471 -0.234169 0.681369 
0.716584 -0.227955 0.659199 -0.571298 -0.322386 0.754776 -0.623869 -0.295421 0.723542 
0.00405427 -0.3848 0.922991 0.601462 -0.382692 0.701278 0.643599 -0.402589 0.650924 
-0.370039 -0.469101 0.801882 -0.189986 -0.564832 0.803038 -0.0481909 -0.606211 0.793843 
0.201028 -0.568447 0.797782 0.237112 -0.562109 0.792346 0.685329 -0.265028 0.678295 
-0.513169 -0.468642 0.71905 0.00861812 -0.721317 0.692552 0.0347695 -0.722464 0.690534 
0.0585184 -0.724612 0.686668 0.589465 -0.500691 0.633908 -0.0488381 -0.608857 0.791775 
0.196032 -0.574744 0.794507 0.0352094 -0.725437 0.687387 -0.242888 0.298311 0.923047 
-0.314924 0.432373 0.844912 -0.444929 0.400647 0.800949 0.106945 0.16604 0.980303 
0.0465969 0.504404 0.862209 0.476786 0.195777 0.85694 -0.577909 0.223168 0.784995 
-0.589156 0.263215 0.763946 -0.600135 0.227664 0.766816 -0.126417 0.12415 0.984178 
0.143548 0.0686144 0.987262 0.443231 0.0761523 0.893167 -0.477807 0.311099 0.821534 
-0.626261 0.365986 0.688369 -0.100606 0.25587 0.961462 0.137734 0.21759 0.966273 
0.460881 0.0811206 0.883747 0.500874 0.133085 0.855227 0.555685 0.102798 0.825013 
-0.456183 0.417305 0.785973 -0.471759 0.608379 0.638215 -0.70313 0.414523 0.577736 
0.187142 0.450051 0.873174 0.294987 0.688801 0.66222 0.611104 0.616785 0.496114 
-0.307598 0.406159 0.860476 -0.747475 0.468238 0.471205 -0.0285635 0.402739 0.914869 
0.220435 0.305252 0.926407 0.636487 0.0320991 0.770619 0.734592 -0.0317225 0.677767 
-0.429347 0.0780117 0.899764 -0.880479 0.0859188 0.466234 0.159819 0.183257 0.969987 
0.623475 0.606558 0.493322 0.429819 0.365131 0.825794 0.64853 0.526147 0.550071 
-0.653773 0.339929 0.676039 -0.749003 0.467131 0.469875 -0.775432 0.41518 0.475743 
0.393208 0.250225 0.884746 0.79131 -0.103589 0.602575 0.823673 -0.132571 0.551351 
-0.566411 -0.119782 0.815372 -0.866456 -0.134081 0.480912 -0.0948436 0.213424 0.972345 
0.213089 0.439884 0.872407 0.66187 0.522828 0.537195 0.521175 0.502587 0.68977 
0.709218 0.501159 0.495832 -0.501091 0.337871 0.796713 -0.787044 0.408788 0.462011 
0.841098 -0.111507 0.529264 0.842943 -0.108912 0.526864 -0.710361 -0.0371408 0.702857 
-0.880412 -0.113173 0.460507 0.762589 0.511707 0.395745 0.792544 0.50794 0.337446 
0.808493 0.488658 0.327951 -0.787258 0.159558 0.595623 -0.789242 0.404785 0.461786 
-0.873248 0.139522 0.466874 0.845524 -0.239622 0.477149 -0.78236 -0.0674542 0.619162 
-0.883811 -0.145742 0.444564 0.93403 0.218401 0.282645 -0.811801 -0.020176 0.583585 
-0.888607 -0.030663 0.457644 0.70443 -0.322169 0.632444 0.819653 -0.39148 0.418226 
-0.833068 -0.196432 0.517119 -0.893316 -0.235147 0.383004 0.9126 -0.0932269 0.398082 
-0.802686 -0.253858 0.539677 -0.859466 -0.256313 0.442292 0.744748 -0.516657 0.422392 
0.748619 -0.520938 0.410113 -0.86381 -0.41872 0.280188 -0.35259 -0.514278 0.781792 
-0.829952 -0.495299 0.256629 0.686552 -0.453918 0.567984 0.825249 -0.396714 0.401972 
-0.791558 -0.431135 0.43308 -0.432441 -0.67042 0.602936 -0.607268 -0.675079 0.41892 
0.614794 -0.705031 0.353496 0.633867 -0.70874 0.309677 0.743314 -0.528817 0.40968 
-0.456811 -0.772394 0.441285 -0.45731 -0.772394 0.440766 -0.0777519 -0.758319 0.64723 
0.22662 -0.798519 0.557684 0.41387 -0.80652 0.422181 0.719623 -0.59401 0.359576 
-0.431004 -0.782482 0.449397 0.106406 -0.87252 0.47685 0.624084 -0.716167 0.31245 
-0.456904 -0.772566 0.440886 -0.0826725 -0.83721 0.540596 0.23898 -0.854943 0.460392 
-0.101424 -0.02534 0.99452 -0.118578 0.0100334 0.992894 -0.196156 0.0330835 0.980015 
0.0731644 -0.150182 0.985947 -0.0746647 -0.0767944 0.994247 -0.450386 0.617523 0.644839 
-0.485193 0.674092 0.556945 -0.615301 0.636645 0.464852 0.0348931 0.551081 0.833722 
0.000995521 0.795891 0.605439 0.513143 0.53892 0.66802 0.508954 0.628016 0.588695 
0.609676 0.547913 0.572789 -0.712338 0.471901 0.519503 -0.781244 0.549542 0.296077 
-0.900025 0.403449 0.164876 0.494517 0.197382 0.846459 0.764852 0.352665 0.539099 
0.769581 0.301574 0.562848 0.796291 0.304435 0.522723 -0.978125 0.199956 0.0573504 
0.455384 0.0757129 0.88707 0.784048 0.0232123 0.620266 0.871629 0.0132387 0.489988 
-0.520096 0.728734 0.445474 -0.619946 0.770509 0.148268 -0.705793 0.702965 0.0877251 
0.322335 0.731169 0.601242 0.342536 0.805784 0.483095 0.679483 0.6962 0.231535 
-0.929778 0.364978 -0.0479932 0.824419 -0.208201 0.526295 0.85318 -0.233493 0.466439 
-0.93328 0.35288 0.0668188 0.671174 0.636594 0.379833 0.772997 0.622748 0.121078 
0.736748 0.672715 0.0682504 -0.756827 0.471919 0.452223 -0.874496 0.471564 -0.113507 
-0.863668 0.489327 -0.120979 0.879062 -0.320958 0.352471 0.855994 -0.278964 0.435262 
-0.988906 -0.0453396 -0.141455 0.709129 0.568185 0.417495 0.755116 0.655505 0.0105969 
0.803644 0.59511 -0 -0.875262 0.482105 -0.0386056 0.944972 -0.212138 0.249047 
-0.966404 -0.19244 -0.170381 0.865381 0.501115 -0 -0.794102 0.412803 0.44609 
-0.874127 0.479974 -0.0743435 -0.887776 0.4532 -0.0803921 0.847238 -0.111371 0.519407 
0.950719 -0.152277 0.270083 -0.983845 -0.0993825 -0.1489 0.861863 0.50686 -0.016884 
0.879078 0.475712 -0.0303342 -0.982177 0.187704 0.00974055 0.872158 -0.283618 0.398623 
0.912298 -0.363669 0.1883 -0.986106 -0.153027 -0.0646353 0.946179 0.323433 -0.0116664 
-0.997804 -0.0337455 0.0569928 0.882921 -0.458234 0.102339 0.890448 -0.429047 0.151726 
-0.926963 -0.366879 -0.078358 0.991535 -0.0678378 0.110711 -0.949801 -0.303395 0.0763561 
0.833143 -0.528226 0.16386 -0.86436 -0.479096 -0.152803 -0.844665 -0.508798 -0.166331 
0.844686 -0.534928 -0.0189062 -0.802915 -0.587251 0.102294 -0.744476 -0.657063 0.118422 
0.666085 -0.712434 0.220833 0.749155 -0.626664 0.214613 -0.683487 -0.729955 0.00314708 
0.586604 -0.807019 -0.0679395 0.727684 -0.677651 -0.106141 -0.497336 -0.833921 0.239234 
0.0989725 -0.933991 0.343316 -0.0806283 -0.95539 0.284127 0.209453 -0.933198 0.292013 
0.652759 -0.722478 0.227883 -0.583018 -0.812013 0.0269453 -0.0568954 -0.996097 0.067475 
0.387196 -0.92193 0.0111939 0.0990702 -0.955972 0.27623 -0.236212 0.562539 0.792309 
-0.234347 0.598735 0.765897 -0.301238 0.583642 0.754067 0.234307 0.563767 0.792002 
0.227841 0.59582 0.770122 0.297773 0.562055 0.771638 -0.479781 0.427002 0.766472 
-0.520077 0.481568 0.705416 -0.56557 0.459733 0.684672 -0.1441 0.260108 0.954766 
0.184118 0.230217 0.955563 0.588092 0.365437 0.721528 0.584428 0.346071 0.733948 
0.603607 0.355733 0.713521 -0.353067 0.219251 0.909545 -0.778379 0.340246 0.527597 
-0.0430949 0.168684 0.984728 0.160702 0.0920755 0.982699 0.400037 0.202967 0.893742 
0.516284 0.385528 0.764734 -0.815474 0.193831 0.545373 -0.839799 0.259718 0.476744 
-0.857601 0.186048 0.479487 -0.345928 0.12866 0.929398 -0.0169464 0.1333 0.990931 
0.16801 0.0990743 0.980794 0.201748 0.0913698 0.975166 0.51478 0.339195 0.787368 
0.406778 0.162565 0.898946 0.585315 0.146471 0.797467 -0.830961 0.183122 0.525329 
-0.938911 0.0851904 0.333451 -0.302844 0.212917 0.928952 0.0131214 0.125133 0.992053 
0.192825 0.136954 0.971629 0.3266 -0.060812 0.943204 0.572135 -0.394486 0.719056 
0.594915 -0.410915 0.690815 -0.842267 0.148544 0.518191 -0.981437 -0.164472 -0.0986374 
0.0994569 -0.172022 0.98006 0.3209 -0.102205 0.941582 0.643499 -0.345368 0.683103 
0.689592 -0.463359 0.556562 0.598878 -0.41922 0.682349 -0.684635 -0.542081 -0.48726 