# vtk DataFile Version 4.0
vtk output
ASCII
DATASET POLYDATA
POINTS 3444 float
-10 12 -12.3394 -10 11.4003 -12 -9.17329 12 -12 
-12 12 -12.5997 -12 11 -12 -14 12 -12.3394 
-14 11.4003 -12 -14.8267 12 -12 -8 14 -12.3394 
-8 13.1733 -12 -7.40028 14 -12 -10 14 -12.9141 
-12 14 -13 -14 14 -12.9141 -16 13.1733 -12 
-16 14 -12.3394 -16.4833 14 -12 -8 16 -12.5997 
-7 16 -12 -10 16 -13 -12 16 -13 
-14 16 -13 -16 16 -12.5997 -16.8267 16 -12 
-8 18 -12.5997 -7 18 -12 -10 18 -13 
-12 18 -13 -14 18 -13 -16 18 -12.5997 
-16.8267 18 -12 -8 20 -12.5997 -7 20 -12 
-10 20 -13 -12 20 -13 -14 20 -12.9141 
-16 20 -12.3394 -16.4833 20 -12 -8 22 -12.5997 
-7 22 -12 -10 22 -13 -12 22 -12.9141 
-14 22 -12.4638 -15 22 -12 -16 20.8267 -12 
-8 24 -12.205 -7.62622 24 -12 -10 24 -12.5997 
-12 24 -12.3394 -12.8267 24 -12 -14 23 -12 
-8 24.3738 -12 -10 25 -12 -12 24.5997 -12 
-10 0 -10.2835 -10 -0.370224 -10 -9.43063 0 -10 
-12 0 -10.3394 -12 -0.483322 -10 -12.7659 0 -10 
-8 2 -10.4638 -8 1.17717 -10 -7.06334 2 -10 
-10 2 -10.9141 -12 2 -10.9141 -14 1.06334 -10 
-14 2 -10.4638 -14.9367 2 -10 -6 4 -10.3394 
-6 3.23405 -10 -5.49316 4 -10 -8 4 -10.9141 
-10 4 -11 -12 4 -11 -14 4 -10.9141 
-16 3.06334 -10 -16 4 -10.4638 -16.7795 4 -10 
-6 6 -10.5997 -5.04771 6 -10 -8 6 -11 
-10 6 -11 -12 6 -11 -14 6 -11 
-16 6 -10.9141 -18 5.70216 -10 -18 6 -10.1473 
-18.16 6 -10 -6 8 -10.7058 -4.59972 8 -10 
-8 8 -11 -10 8 -11 -12 8 -11 
-14 8 -11 -16 8 -11 -18 8 -10.5563 
-18.7091 8 -10 -4 10 -10.3394 -4 9 -10 
-3.40028 10 -10 -6 10 -10.9141 -8 10 -11.0859 
-10 10 -11.2942 -12 10 -11.4003 -14 10 -11.2942 
-16 10 -11.0859 -18 10 -10.5997 -18.8267 10 -10 
-4 12 -10.5997 -3 12 -10 -6 12 -11.0859 
-8 12 -11.5362 -16 12 -11.5362 -18 12 -10.6841 
-18.8734 12 -10 -4 14 -10.5997 -3 14 -10 
-6 14 -11.2942 -18 14 -10.8921 -18.9634 14 -10 
-4 16 -10.5997 -3 16 -10 -6 16 -11.4003 
-18 16 -11 -19 16 -10 -4 18 -10.5997 
-3 18 -10 -6 18 -11.4003 -18 18 -11 
-19 18 -10 -4 20 -10.5997 -3 20 -10 
-6 20 -11.4003 -18 20 -10.8921 -18.9634 20 -10 
-4 22 -10.5997 -3.04771 22 -10 -6 22 -11.4003 
-16 22 -11.5362 -18 22 -10.6841 -18.8734 22 -10 
-4 24 -10.2835 -3.61275 24 -10 -6 24 -11.209 
-14 24 -11.5362 -16 24 -11 -18 24 -10.2835 
-18.3702 24 -10 -4 24.4961 -10 -5.26633 26 -10 
-6 26 -10.498 -8 26 -11.209 -10 26 -11.4003 
-12 26 -11.2942 -14 26 -11.0859 -16 26 -10.7058 
-17.1834 26 -10 -18 24.668 -10 -6 26.7337 -10 
-7.33243 28 -10 -8 28 -10.4141 -10 28 -10.9141 
-12 28 -11 -14 28 -10.9141 -16 28 -10.2835 
-16.3702 28 -10 -8 28.6676 -10 -9.5039 30 -10 
-10 30 -10.2835 -12 30 -10.5997 -14 30 -10.2835 
-14.4961 30 -10 -16 28.4961 -10 -10 30.3702 -10 
-12 30.8267 -10 -14 30.3702 -10 -10 -2 -8.57038 
-10 -2.57037 -8 -9.12869 -2 -8 -12 -2 -8.89211 
-12 -2.96341 -8 -14 -2 -8.36544 -14 -2.43886 -8 
-14.5798 -2 -8 -6 0 -8.22985 -6 -0.229843 -8 
-5.63953 0 -8 -8 0 -9.21964 -8 -1.26636 -8 
-14 0 -9.45311 -16 -0.733673 -8 -16 0 -8.49796 
-16.699 0 -8 -4 2 -8.36544 -4 1.45078 -8 
-3.54184 2 -8 -6 2 -9.45311 -16 2 -9.45311 
-18 1.74338 -8 -18 2 -8.15996 -18.1473 2 -8 
-4 4 -9 -2.41558 4 -8 -18 4 -9.0247 
-18.7536 4 -8 0 6 -8.28352 0 5.61275 -8 
0.569372 6 -8 -2 6 -8.70585 -2 4.4973 -8 
-4 6 -9.31585 -19.4531 6 -8 2 8 -8.46385 
2 7.17717 -8 2.82283 8 -8 0 8 -8.91407 
-2 8 -9.08593 -4 8 -9.66056 -20 7.14955 -8 
-20 8 -8.55056 -20.4208 8 -8 4 10 -8.4141 
4 9.24652 -8 4.75348 10 -8 2 10 -8.91407 
0 10 -9 -2 10 -9.29415 -20 10 -8.96341 
-20.8921 10 -8 6 12 -8.46385 6 11.1772 -8 
7.08705 12 -8 4 12 -8.91407 2 12 -9 
0 12 -9 -2 12 -9.40028 -20 12 -9 
-21 12 -8 10 14 -8.1421 10 13.7928 -8 
10.1971 14 -8 8 14 -8.70585 8 12.6759 -8 
6 14 -8.91407 4 14 -9 2 14 -9 
0 14 -9 -2 14 -9.40028 -20 14 -9 
-21 14 -8 10 16 -8.59972 10.8267 16 -8 
8 16 -9 6 16 -9 4 16 -9 
2 16 -9 0 16 -9 -2 16 -9.40028 
-20 16 -9 -21 16 -8 10 18 -8.59972 
10.8267 18 -8 8 18 -9 6 18 -9 
4 18 -9 2 18 -9 0 18 -9 
-2 18 -9.40028 -20 18 -9 -21 18 -8 
10 20 -8.59972 10.8267 20 -8 8 20 -9 
6 20 -9 4 20 -9 2 20 -9 
0 20 -9 -2 20 -9.40028 -20 20 -8.96341 
-20.8921 20 -8 10 22 -8.59972 10.8267 22 -8 
8 22 -9 6 22 -9 4 22 -8.91407 
2 22 -8.70585 0 22 -8.70585 -2 22 -9.31585 
-20 22 -8.87337 -20.6841 22 -8 10 24 -8.59972 
10.8267 24 -8 8 24 -8.91407 6 24 -8.66718 
4 24 -8.14726 3.64521 24 -8 2 23.1285 -8 
0 23.1834 -8 -0.934112 24 -8 -2 24 -8.70659 
-20 24 -8.19708 -20.1421 24 -8 10 26 -8.1421 
10.1971 26 -8 8 26 -8.28352 7.43063 26 -8 
6 25.027 -8 4 24.16 -8 -2 24.8977 -8 
-4 26 -8.95923 -3 26 -8 -18 26 -9.29292 
-19 26 -8 -20 24.2332 -8 10 26.1971 -8 
8 26.3702 -8 -4 27 -8 -6 28 -8.95923 
-5 28 -8 -18 28 -8.37022 -18.2835 28 -8 
-6 29 -8 -8 30 -8.95923 -7 30 -8 
-16 30 -8.95923 -16.9592 30 -8 -18 28.4961 -8 
-8 31 -8 -10 32 -8.57038 -9.22803 32 -8 
-12 32 -8.96341 -14 32 -8.43887 -14.5798 32 -8 
-16 30.9592 -8 -10 32.5704 -8 -12 32.8921 -8 
-14 32.3654 -8 -10 -4 -6.37022 -10 -4.28352 -6 
-9.43063 -4 -6 -12 -4 -6.82671 -12 -4.59972 -6 
-14 -4 -6.37022 -14 -4.28352 -6 -14.5694 -4 -6 
-8 -2 -7.17926 -8 -3.13081 -6 -6.54922 -2 -6 
-16 -2 -7 -16 -3.09358 -6 -17.1425 -2 -6 
-4 0 -6.54922 -4 -0.378723 -6 -3.54184 0 -6 
-6 -1.62128 -6 -18 0 -6.82074 -18 -1 -6 
-18.7066 0 -6 -2 2 -6.59326 -2 1.40674 -6 
-1.22054 2 -6 -19.3159 2 -6 0 4 -6.7526 
0 3.04514 -6 1.43063 4 -6 -2 4 -7.71579 
-19.7165 4 -6 4 6 -6.28421 4 5.5027 -6 
4.4973 6 -6 2 6 -7.2474 2 4.38725 -6 
-20 4.56937 -6 -20 6 -7.11512 -20.7526 6 -6 
4 8 -7.2474 5.79284 8 -6 -21.6346 8 -6 
8 10 -6.42082 8 9.32408 -6 8.91296 10 -6 
6 10 -7.2474 6 8.20715 -6 -22 8.76595 -6 
-22 10 -6.6785 -22.6235 10 -6 10 12 -6.7526 
10 10.8228 -6 11 12 -6 8 12 -7.57918 
-22 12 -7 -23 12 -6 12 14 -6.43887 
12 13.34 -6 12.3654 14 -6 -22 14 -7 
-23 14 -6 12 16 -6.96341 12.8921 16 -6 
-22 16 -7 -23 16 -6 12 18 -7 
13 18 -6 -22 18 -7 -23 18 -6 
12 20 -7 13 20 -6 -22 20 -6.6785 
-22.6235 20 -6 12 22 -7 13 22 -6 
-21.5859 22 -6 -22 21.1352 -6 12 24 -6.96341 
12.8921 24 -6 2 24 -7.27016 0 24 -7.37653 
-20.791 24 -6 12 26 -6.28071 12.2214 26 -6 
6 26 -7.13082 4.36047 26 -6 4 25.7702 -6 
2 25.1467 -6 0 25.3765 -6 -2 26 -6.89765 
-0.934112 26 -6 -19.795 26 -6 -20 25.6262 -6 
12 26.2807 -6 10 28 -6.19708 10.1971 28 -6 
8 28 -6.37022 7.43063 28 -6 6 27.1308 -6 
-2 26.7066 -6 -4 28 -6.77197 -3.40674 28 -6 
-19.209 28 -6 10 28.1421 -6 8 28.2835 -6 
-4 28.5704 -6 -6 30 -6.77197 -5.42962 30 -6 
-18 30 -6.57978 -18.3654 30 -6 -6 30.5704 -6 
-8 32 -6.77197 -7.42962 32 -6 -16 32 -6.4961 
-16.3702 32 -6 -18 30.4389 -6 -8 32.5704 -6 
-10 34 -6.19708 -9.80292 34 -6 -12 34 -6.31235 
-12.3738 34 -6 -14 33.209 -6 -16 32.2835 -6 
-10 34.1421 -6 -12 34.205 -6 10 -4 -4.07739 
10 -4.07739 -4 10.1387 -4 -4 9.5303 -4 -4 
-8 -4 -5.02698 -8 -4.66718 -4 -6.34684 -4 -4 
-10 -4.91406 -4 -12 -5 -4 -14 -4.91406 -4 
-16 -4 -5.02698 -16 -4.66718 -4 -17.5392 -4 -4 
12 -2 -4.28352 12 -2.46849 -4 12.3702 -2 -4 
10 -2 -4.91407 8 -3.5392 -4 8 -2 -4.66718 
6.97302 -2 -4 -6 -2 -5.54184 -6 -3.76428 -4 
-4.59326 -2 -4 -18 -2 -5.19938 -18 -3.62215 -4 
-18.9663 -2 -4 12 0 -4.59972 12.8267 0 -4 
10 0 -5 8 0 -4.91407 6 -0.753479 -4 
6 0 -4.4141 5.13524 0 -4 -4 -1.40674 -4 
-2.29436 0 -4 -20 0 -4.29436 -20 -0.329346 -4 
-20.2214 0 -4 12 2 -4.59972 12.8267 2 -4 
10 2 -5 8 2 -5 6 2 -4.91407 
4 0.816589 -4 4 2 -4.70585 2 2 -4.68415 
2 1.12663 -4 0 2 -5.14003 0 0.923401 -4 
-2 0.221436 -4 -20 2 -5.09046 -20.9234 2 -4 
12 4 -4.59972 12.8267 4 -4 10 4 -5 
8 4 -5 6 4 -5.08593 4 4 -5.29415 
2 4 -5.71648 -20 4 -5.62978 -21.5611 4 -4 
12 6 -4.59972 12.8267 6 -4 10 6 -5 
8 6 -5 6 6 -5.29415 -22 6 -4.64752 
-22 4.76595 -4 -22.6785 6 -4 12 8 -4.59972 
12.8267 8 -4 10 8 -5.08593 8 8 -5.29415 
6 8 -5.8579 -22 8 -5.56113 -23.3765 8 -4 
12 10 -4.68415 12.8734 10 -4 10 10 -5.53615 
-24 10 -4.37022 -24 9.33195 -4 -24.2835 10 -4 
12 12 -5.184 13.0766 12 -4 -24 12 -4.82671 
-24.5997 12 -4 13.5792 14 -4 -24 14 -4.82671 
-24.5997 14 -4 14 16 -4.48333 14 15.0876 -4 
14.3394 16 -4 -24 16 -4.82671 -24.5997 16 -4 
14 18 -4.82671 14.5997 18 -4 -24 18 -4.82671 
-24.5997 18 -4 14 20 -4.82671 14.5997 20 -4 
-24 20 -4.37022 -24.2835 20 -4 14 22 -4.82671 
14.5997 22 -4 -22 22 -5.33243 -23 22 -4 
-24 20.4961 -4 14 24 -4.31235 14.205 24 -4 
-21.502 24 -4 -22 23.2663 -4 14 24.3123 -4 
12.8921 26 -4 4 26 -5.77016 2 26 -5.11573 
0 26 -5.22128 -20 26 -5.62622 -20.791 26 -4 
12 26.9634 -4 10.8267 28 -4 6 28 -5.02698 
4 28 -4.15996 3.70217 28 -4 2 27.14 -4 
0 26.791 -4 -2 27.3159 -4 -2.87337 28 -4 
-20 28 -4.37378 -20.205 28 -4 10 28.5997 -4 
8 28.9141 -4 6 28.6672 -4 4 28.1473 -4 
-4 29 -4 -5 30 -4 -18.8921 30 -4 
-20 28.3123 -4 -6 31 -4 -7.03659 32 -4 
-16.8267 32 -4 -18 30.9634 -4 -8 32.8921 -4 
-9.68765 34 -4 -12.3984 34 -4 -14 33.2941 -4 
-16 32.5997 -4 -10 34.205 -4 -12 34.205 -4 
12 -4 -2.63445 12 -4.41411 -2 12.6344 -4 -2 
10 -4.91406 -2 8 -4 -3.45754 8 -4.55635 -2 
7.29089 -4 -2 -6 -4 -3.58626 -6 -4.55635 -2 
-5.29089 -4 -2 -8 -5 -2 -10 -5 -2 
-12 -5 -2 -14 -5 -2 -16 -5 -2 
-18 -4 -3.26853 -18 -4.39838 -2 -18.3984 -4 -2 
14 -2 -2.37022 14 -2.46849 -2 14.2835 -2 -2 
6 -2 -2.88488 6 -2.67851 -2 5.29292 -2 -2 
-4 -2 -3.06334 -4 -2.67851 -2 -3.29292 -2 -2 
-19.4437 -2 -2 14 0 -2.82671 14.5997 0 -2 
4 0 -3.29292 4 -1 -2 2 0 -2.82671 
2 -0.599716 -2 0 0 -2.86243 0 -0.599716 -2 
-2 0 -3.67065 -2 -1 -2 -20 -1.26175 -2 
-21.184 0 -2 14 2 -2.82671 14.5997 2 -2 
-22 1 -2 -22 2 -2.816 -22.8692 2 -2 
14 4 -2.82671 14.5997 4 -2 -22 4 -3.63456 
-24 3.74338 -2 -24 4 -2.15996 -24.1473 4 -2 
14 6 -2.82671 14.5997 6 -2 -24 6 -2.70911 
-24.5563 6 -2 14 8 -2.82671 14.5997 8 -2 
-24 8 -3.18341 -24.7059 8 -2 14 10 -2.82671 
14.5997 10 -2 -24.9141 10 -2 14 12 -2.86243 
14.5997 12 -2 -25 12 -2 14 14 -3.32407 
14.7058 14 -2 -25 14 -2 14.9141 16 -2 
-25 16 -2 15 18 -2 -25 18 -2 
15 20 -2 -24.9141 20 -2 15 22 -2 
-24 22 -2.66757 -24.4141 22 -2 14.5997 24 -2 
-22 24 -3.26633 -23 24 -2 -24 22.6676 -2 
14 24.8267 -2 13 26 -2 -21.5859 26 -2 
-22 25.3324 -2 12 27 -2 10.8267 28 -2 
2.52077 28 -2 2 27.8014 -2 0 27 -2 
-2 27.3159 -2 -2.90954 28 -2 -20.6841 28 -2 
10 28.5997 -2 8 28.9141 -2 6 28.7059 -2 
[...]
POINT_DATA 3444
SCALARS scalars unsigned_short
LOOKUP_TABLE default
1 1 1 1 1 1 1 1 1 
1 1 1 1 1 1 1 1 1 
1 1 1 1 1 1 1 1 1 
1 1 1 1 1 1 1 1 1 
1 1 1 1 1 1 1 1 1 
1 1 1 1 1 1 1 1 1 
1 1 1 1 1 1 1 1 1 
1 1 1 1 1 1 1 1 1 
1 1 1 1 1 1 1 1 1 
1 1 1 1 1 1 1 1 1 
1 1 1 1 1 1 1 1 1 
1 1 1 1 1 1 1 1 1 
1 1 1 1 1 1 1 1 1 
1 1 1 1 1 1 1 1 1 
1 1 1 1 1 1 1 1 1 
1 1 1 1 1 1 1 1 1 
1 1 1 1 1 1 1 1 1 
1 1 1 1 1 1 1 1 1 
1 1 1 1 1 1 1 1 1 
1 1 1 1 1 1 1 1 1 
1 1 1 1 1 1 1 1 1 
1 1 1 1 1 1 1 1 1 
1 1 1 1 1 1 1 1 1 
1 1 1 1 1 1 1 1 1 
1 1 1 1 1 1 1 1 1 
1 1 1 1 1 1 1 1 1 
1 1 1 1 1 1 1 1 1 
1 1 1 1 1 1 1 1 1 
1 1 1 1 1 1 1 1 1 
1 1 1 1 1 1 1 1 1 
1 1 1 1 1 1 1 1 1 
1 1 1 1 1 1 1 1 1 
1 1 1 1 1 1 1 1 1 
1 1 1 1 1 1 1 1 1 
1 1 1 1 1 1 1 1 1 
1 1 1 1 1 1 1 1 1 
1 1 1 1 1 1 1 1 1 
1 1 1 1 1 1 1 1 1 
1 1 1 1 1 1 1 1 1 
1 1 1 1 1 1 1 1 1 
1 1 1 1 1 1 1 1 1 
1 1 1 1 1 1 1 1 1 
1 1 1 1 1 1 1 1 1 
1 1 1 1 1 1 1 1 1 
1 1 1 1 1 1 1 1 1 
1 1 1 1 1 1 1 1 1 
1 1 1 1 1 1 1 1 1 
1 1 1 1 1 1 1 1 1 
1 1 1 1 1 1 1 1 1 
1 1 1 1 1 1 1 1 1 
1 1 1 1 1 1 1 1 1 
1 1 1 1 1 1 1 1 1 
1 1 1 1 1 1 1 1 1 
1 1 1 1 1 1 1 1 1 
1 1 1 1 1 1 1 1 1 
1 1 1 1 1 1 1 1 1 
1 1 1 1 1 1 1 1 1 
1 1 1 1 1 1 1 1 1 
1 1 1 1 1 1 1 1 1 
1 1 1 1 1 1 1 1 1 
1 1 1 1 1 1 1 1 1 
1 1 1 1 1 1 1 1 1 
1 1 1 1 1 1 1 1 1 
1 1 1 1 1 1 1 1 1 
1 1 1 1 1 1 1 1 1 
1 1 1 1 1 1 1 1 1 
1 1 1 1 1 1 1 1 1 
1 1 1 1 1 1 1 1 1 
1 1 1 1 1 1 1 1 1 
1 1 1 1 1 1 1 1 1 
1 1 1 1 1 1 1 1 1 
1 1 1 1 1 1 1 1 1 
1 1 1 1 1 1 1 1 1 
1 1 1 1 1 1 1 1 1 
1 1 1 1 1 1 1 1 1 
1 1 1 1 1 1 1 1 1 
1 1 1 1 1 1 1 1 1 
1 1 1 1 1 1 1 1 1 
1 1 1 1 1 1 1 1 1 
1 1 1 1 1 1 1 1 1 
1 1 1 1 1 1 1 1 1 
1 1 1 1 1 1 1 1 1 
1 1 1 1 1 1 1 1 1 
1 1 1 1 1 1 1 1 1 
1 1 1 1 1 1 1 1 1 
1 1 1 1 1 1 1 1 1 
1 1 1 1 1 1 1 1 1 
1 1 1 1 1 1 1 1 1 
1 1 1 1 1 1 1 1 1 
1 1 1 1 1 1 1 1 1 
1 1 1 1 1 1 1 1 1 
1 1 1 1 1 1 1 1 1 
1 1 1 1 1 1 1 1 1 
1 1 1 1 1 1 1 1 1 
1 1 1 1 1 1 1 1 1 
1 1 1 1 1 1 1 1 1 
1 1 1 1 1 1 1 1 1 
1 1 1 1 1 1 1 1 1 
1 1 1 1 1 1 1 1 1 
1 1 1 1 1 1 1 1 1 
1 1 1 1 1 1 1 1 1 
1 1 1 1 1 1 1 1 1 
1 1 1 1 1 1 1 1 1 
1 1 1 1 1 1 1 1 1 
1 1 1 1 1 1 1 1 1 
1 1 1 1 1 1 1 1 1 
1 1 1 1 1 1 1 1 1 
1 1 1 1 1 1 1 1 1 
1 1 1 1 1 1 1 1 1 
1 1 1 1 1 1 1 1 1 
1 1 1 1 1 1 1 1 1 
1 1 1 1 1 1 1 1 1 
1 1 1 1 1 1 1 1 1 
1 1 1 1 1 1 1 1 1 
1 1 1 1 1 1 1 1 1 
1 1 1 1 1 1 1 1 1 
1 1 1 1 1 1 1 1 1 
1 1 1 1 1 1 1 1 1 
1 1 1 1 1 1 1 1 1 
1 1 1 1 1 1 1 1 1 
1 1 1 1 1 1 1 1 1 
1 1 1 1 1 1 1 1 1 
1 1 1 1 1 1 1 1 1 
1 1 1 1 1 1 1 1 1 
1 1 1 1 1 1 1 1 1 
1 1 1 1 1 1 1 1 1 
1 1 1 1 1 1 1 1 1 
1 1 1 1 1 1 1 1 1 
1 1 1 1 1 1 1 1 1 
1 1 1 1 1 1 1 1 1 
1 1 1 1 1 1 1 1 1 
1 1 1 1 1 1 1 1 1 
1 1 1 1 1 1 1 1 1 
1 1 1 1 1 1 1 1 1 
1 1 1 1 1 1 1 1 1 
1 1 1 1 1 1 1 1 1 
1 1 1 1 1 1 1 1 1 
1 1 1 1 1 1 1 1 1 
1 1 1 1 1 1 1 1 1 
1 1 1 1 1 1 1 1 1 
1 1 1 1 1 1 1 1 1 
1 1 1 1 1 1 1 1 1 
1 1 1 1 1 1 1 1 1 
1 1 1 1 1 1 1 1 1 
1 1 1 1 1 1 1 1 1 
1 1 1 1 1 1 1 1 1 
1 1 1 1 1 1 1 1 1 
1 1 1 1 1 1 1 1 1 
1 1 1 1 1 1 1 1 1 
1 1 1 1 1 1 1 1 1 
1 1 1 1 1 1 1 1 1 
1 1 1 1 1 1 1 1 1 
1 1 1 1 1 1 1 1 1 
1 1 1 1 1 1 1 1 1 
1 1 1 1 1 1 1 1 1 
1 1 1 1 1 1 1 1 1 
1 1 1 1 1 1 1 1 1 
1 1 1 1 1 1 1 1 1 
1 1 1 1 1 1 1 1 1 
1 1 1 1 1 1 1 1 1 
1 1 1 1 1 1 1 1 1 
1 1 1 1 1 1 1 1 1 
1 1 1 1 1 1 1 1 1 
1 1 1 1 1 1 1 1 1 
1 1 1 1 1 1 1 1 1 
1 1 1 1 1 1 1 1 1 
1 1 1 1 1 1 1 1 1 
1 1 1 1 1 1 1 1 1 
1 1 1 1 1 1 1 1 1 
1 1 1 1 1 1 1 1 1 
1 1 1 1 1 1 1 1 1 
1 1 1 1 1 1 1 1 1 
1 1 1 1 1 1 1 1 1 
1 1 1 1 1 1 1 1 1 
1 1 1 1 1 1 1 1 1 
1 1 1 1 1 1 1 1 1 
1 1 1 1 1 1 1 1 1 
1 1 1 1 1 1 1 1 1 
1 1 1 1 1 1 1 1 1 
1 1 1 1 1 1 1 1 1 
1 1 1 1 1 1 1 1 1 
1 1 1 1 1 1 1 1 1 
1 1 1 1 1 1 1 1 1 
1 1 1 1 1 1 1 1 1 
1 1 1 1 1 1 1 1 1 
1 1 1 1 1 1 1 1 1 
1 1 1 1 1 1 1 1 1 
1 1 1 1 1 1 1 1 1 
1 1 1 1 1 1 1 1 1 
1 1 1 1 1 1 1 1 1 
1 1 1 1 1 1 1 1 1 
1 1 1 1 1 1 1 1 1 
1 1 1 1 1 1 1 1 1 
1 1 1 1 1 1 1 1 1 
1 1 1 1 1 1 1 1 1 
1 1 1 1 1 1 1 1 1 
1 1 1 1 1 1 1 1 1 
1 1 1 1 1 1 1 1 1 
1 1 1 1 1 1 1 1 1 
1 1 1 1 1 1 1 1 1 
1 1 1 1 1 1 1 1 1 
1 1 1 1 1 1 1 1 1 
1 1 1 1 1 1 1 1 1 
1 1 1 1 1 1 1 1 1 
1 1 1 1 1 1 1 1 1 
1 1 1 1 1 1 1 1 1 
1 1 1 1 1 1 1 1 1 
1 1 1 1 1 1 1 1 1 
1 1 1 1 1 1 1 1 1 
1 1 1 1 1 1 1 1 1 
1 1 1 1 1 1 1 1 1 
1 1 1 1 1 1 1 1 1 
1 1 1 1 1 1 1 1 1 
1 1 1 1 1 1 1 1 1 
1 1 1 1 1 1 1 1 1 
1 1 1 1 1 1 1 1 1 
1 1 1 1 1 1 1 1 1 
1 1 1 1 1 1 1 1 1 
1 1 1 1 1 1 1 1 1 
1 1 1 1 1 1 1 1 1 
1 1 1 1 1 1 1 1 1 
1 1 1 1 1 1 1 1 1 
1 1 1 1 1 1 1 1 1 
1 1 1 1 1 1 1 1 1 
1 1 1 1 1 1 1 1 1 
1 1 1 1 1 1 1 1 1 
1 1 1 1 1 1 1 1 1 
1 1 1 1 1 1 1 1 1 
1 1 1 1 1 1 1 1 1 
1 1 1 1 1 1 1 1 1 
1 1 1 1 1 1 1 1 1 
1 1 1 1 1 1 1 1 1 
1 1 1 1 1 1 1 1 1 
1 1 1 1 1 1 1 1 1 
1 1 1 1 1 1 1 1 1 
1 1 1 1 1 1 1 1 1 
1 1 1 1 1 1 1 1 1 
1 1 1 1 1 1 1 1 1 
1 1 1 1 1 1 1 1 1 
1 1 1 1 1 1 1 1 1 
1 1 1 1 1 1 1 1 1 
1 1 1 1 1 1 1 1 1 
1 1 1 1 1 1 1 1 1 
1 1 1 1 1 1 1 1 1 
1 1 1 1 1 1 1 1 1 
1 1 1 1 1 1 1 1 1 
1 1 1 1 1 1 1 1 1 
1 1 1 1 1 1 1 1 1 
1 1 1 1 1 1 1 1 1 
1 1 1 1 1 1 1 1 1 
1 1 1 1 1 1 1 1 1 
1 1 1 1 1 1 1 1 1 
1 1 1 1 1 1 1 1 1 
1 1 1 1 1 1 1 1 1 
1 1 1 1 1 1 1 1 1 
1 1 1 1 1 1 1 1 1 
1 1 1 1 1 1 1 1 1 
1 1 1 1 1 1 1 1 1 
1 1 1 1 1 1 1 1 1 
1 1 1 1 1 1 1 1 1 
1 1 1 1 1 1 1 1 1 
1 1 1 1 1 1 1 1 1 
1 1 1 1 1 1 1 1 1 
1 1 1 1 1 1 1 1 1 
1 1 1 1 1 1 1 1 1 
1 1 1 1 1 1 1 1 1 
1 1 1 1 1 1 1 1 1 
1 1 1 1 1 1 1 1 1 
1 1 1 1 1 1 1 1 1 
1 1 1 1 1 1 1 1 1 
1 1 1 1 1 1 1 1 1 
1 1 1 1 1 1 1 1 1 
1 1 1 1 1 1 1 1 1 
1 1 1 1 1 1 1 1 1 
1 1 1 1 1 1 1 1 1 
1 1 1 1 1 1 1 1 1 
1 1 1 1 1 1 1 1 1 
1 1 1 1 1 1 1 1 1 
1 1 1 1 1 1 1 1 1 
1 1 1 1 1 1 1 1 1 
1 1 1 1 1 1 1 1 1 
1 1 1 1 1 1 1 1 1 
1 1 1 1 1 1 1 1 1 
1 1 1 1 1 1 1 1 1 
1 1 1 1 1 1 1 1 1 
1 1 1 1 1 1 1 1 1 
1 1 1 1 1 1 1 1 1 
1 1 1 1 1 1 1 1 1 
1 1 1 1 1 1 1 1 1 
1 1 1 1 1 1 1 1 1 
1 1 1 1 1 1 1 1 1 
1 1 1 1 1 1 1 1 1 
1 1 1 1 1 1 1 1 1 
1 1 1 1 1 1 1 1 1 
1 1 1 1 1 1 1 1 1 
1 1 1 1 1 1 1 1 1 
1 1 1 1 1 1 1 1 1 
1 1 1 1 1 1 1 1 1 
1 1 1 1 1 1 1 1 1 
1 1 1 1 1 1 1 1 1 
1 1 1 1 1 1 1 1 1 
1 1 1 1 1 1 1 1 1 
1 1 1 1 1 1 1 1 1 
1 1 1 1 1 1 1 1 1 
1 1 1 1 1 1 1 1 1 
1 1 1 1 1 1 1 1 1 
1 1 1 1 1 1 1 1 1 
1 1 1 1 1 1 1 1 1 
1 1 1 1 1 1 1 1 1 
1 1 1 1 1 1 1 1 1 
1 1 1 1 1 1 1 1 1 
1 1 1 1 1 1 1 1 1 
1 1 1 1 1 1 1 1 1 
1 1 1 1 1 1 1 1 1 
1 1 1 1 1 1 1 1 1 
1 1 1 1 1 1 1 1 1 
1 1 1 1 1 1 1 1 1 
1 1 1 1 1 1 1 1 1 
1 1 1 1 1 1 1 1 1 
1 1 1 1 1 1 1 1 1 
1 1 1 1 1 1 1 1 1 
1 1 1 1 1 1 1 1 1 
1 1 1 1 1 1 1 1 1 
1 1 1 1 1 1 1 1 1 
1 1 1 1 1 1 1 1 1 
1 1 1 1 1 1 1 1 1 
1 1 1 1 1 1 1 1 1 
1 1 1 1 1 1 1 1 1 
1 1 1 1 1 1 1 1 1 
1 1 1 1 1 1 1 1 1 
1 1 1 1 1 1 1 1 1 
1 1 1 1 1 1 1 1 1 
1 1 1 1 1 1 1 1 1 
1 1 1 1 1 1 1 1 1 
1 1 1 1 1 1 1 1 1 
1 1 1 1 1 1 1 1 1 
1 1 1 1 1 1 1 1 1 
1 1 1 1 1 1 1 1 1 
1 1 1 1 1 1 1 1 1 
1 1 1 1 1 1 1 1 1 
1 1 1 1 1 1 1 1 1 
1 1 1 1 1 1 1 1 1 
1 1 1 1 1 1 1 1 1 
1 1 1 1 1 1 1 1 1 
1 1 1 1 1 1 1 1 1 
1 1 1 1 1 1 1 1 1 
1 1 1 1 1 1 1 1 1 
1 1 1 1 1 1 1 1 1 
1 1 1 1 1 1 1 1 1 
1 1 1 1 1 1 1 1 1 
1 1 1 1 1 1 1 1 1 
1 1 1 1 1 1 1 1 1 
1 1 1 1 1 1 1 1 1 
1 1 1 1 1 1 1 1 1 
1 1 1 1 1 1 1 1 1 
1 1 1 1 1 1 1 1 1 
1 1 1 1 1 1 1 1 1 
1 1 1 1 1 1 1 1 1 
1 1 1 1 1 1 1 1 1 
1 1 1 1 1 1 1 1 1 
1 1 1 1 1 1 1 1 1 
1 1 1 1 1 1 1 1 1 
1 1 1 1 1 1 1 1 1 
1 1 1 1 1 1 1 1 1 
1 1 1 1 1 1 1 1 1 
1 1 1 1 1 1 1 1 1 
1 1 1 1 1 1 1 1 1 
1 1 1 1 1 1 1 1 1 
1 1 1 1 1 1 1 1 1 
1 1 1 1 1 1 1 1 1 
1 1 1 1 1 1 1 1 1 
1 1 1 1 1 1 1 1 1 
1 1 1 1 1 1 1 1 1 
1 1 1 1 1 1 1 1 1 
1 1 1 1 1 1 1 1 1 
1 1 1 1 1 1 1 1 1 
1 1 1 1 1 1 1 1 1 
1 1 1 1 1 1 1 1 1 
1 1 1 1 1 1 1 1 1 
1 1 1 1 1 1 1 1 1 
1 1 1 1 1 1 1 1 1 
1 1 1 1 1 1 1 1 1 
1 1 1 1 1 1 
NORMALS normals float
-0.25602 0.428796 0.866364 -0.223197 0.433381 0.873135 -0.299609 0.406134 0.863302 
-0 0.417715 0.908578 -0 0.462756 0.886486 0.25602 0.428796 0.866364 
0.223197 0.433381 0.873135 0.323691 0.402771 0.856154 -0.428796 0.25602 0.866364 
-0.406134 0.299609 0.863302 -0.449137 0.221278 0.865628 -0.184491 0.184491 0.965363 
-0 0.118653 0.992936 0.184491 0.184491 0.965363 0.458093 0.291442 0.839769 
0.473137 0.249669 0.844871 0.525747 0.227456 0.819667 -0.416739 0.0683194 0.906455 
-0.487576 0.0543561 0.871387 -0.118605 0.028346 0.992537 -0 -0 1 
0.118605 0.028346 0.992537 0.456835 0.0668558 0.887036 0.579657 0.0578922 0.812801 
-0.417715 -0 0.908578 -0.488297 -0 0.872677 -0.118653 -0 0.992936 
-0 -0 1 0.118605 -0.028346 0.992537 0.456835 -0.0668558 0.887036 
0.579657 -0.0578922 0.812801 -0.417715 -0 0.908578 -0.488297 -0 0.872677 
-0.118653 -0 0.992936 0.0285359 -0.0285359 0.999185 0.185406 -0.156293 0.970153 
0.473137 -0.249669 0.844871 0.525747 -0.227456 0.819667 -0.415649 -0.0993378 0.904084 
-0.486767 -0.0791108 0.869942 -0.0899297 -0.118172 0.988913 0.156293 -0.185406 0.970153 
0.348896 -0.348896 0.869795 0.399722 -0.359114 0.843362 0.467892 -0.29527 0.833002 
-0.350263 -0.350263 0.868696 -0.377524 -0.33022 0.865119 -0.0313368 -0.41751 0.908132 
0.25602 -0.428796 0.866364 0.303677 -0.416911 0.856718 0.363559 -0.372627 0.8538 
-0.330583 -0.375015 0.866071 -0.0252158 -0.46882 0.882934 0.223197 -0.433381 0.873135 
-0.22918 0.515666 0.82557 -0.233829 0.557859 0.796315 -0.291017 0.53967 0.789978 
0.183852 0.480282 0.857629 0.166063 0.532403 0.830042 0.276303 0.487213 0.82842 
-0.354721 0.381723 0.853499 -0.395891 0.464694 0.792042 -0.41265 0.4147 0.811014 
-0.127472 0.195477 0.972389 0.127707 0.186176 0.974181 0.394404 0.416722 0.819017 
0.358302 0.358302 0.862114 0.414181 0.407214 0.814022 -0.461274 0.263538 0.847216 
-0.471481 0.331286 0.817285 -0.502164 0.257539 0.825533 -0.185406 0.156293 0.970153 
-0.0285359 0.0285359 0.999185 0.0285359 0.0285359 0.999185 0.157076 0.157076 0.975015 
0.434716 0.402907 0.805412 0.392209 0.353032 0.849435 0.49111 0.387823 0.780003 
-0.425454 0.0988414 0.899566 -0.490275 0.133367 0.861304 -0.118605 0.028346 0.992537 
-0 -0 1 -0 -0 1 0.0285359 0.0285359 0.999185 
0.214726 0.155341 0.964242 0.610399 0.325759 0.722007 0.599738 0.307743 0.738653 
0.623896 0.312119 0.716474 -0.344647 0.0985199 0.933548 -0.434605 0.210805 0.875602 
-0.0905277 0.0284303 0.995488 -0 0.0905643 0.995891 -0 0.118653 0.992936 
-0 0.0905643 0.995891 0.127215 0.056562 0.990261 0.492868 0.106778 0.863528 
0.612185 0.13515 0.779079 -0.432146 0.225585 0.873133 -0.44899 0.242092 0.860116 
-0.43559 0.200261 0.877586 -0.212627 0.119963 0.969742 -0.12123 0.157877 0.979989 
-0.0985199 0.344647 0.933548 -0 0.417715 0.908578 0.0985199 0.344647 0.933548 
0.206105 0.155636 0.966074 0.475266 0.0340884 0.879182 0.589435 0.0325038 0.807162 
-0.43561 0.0676512 0.89759 -0.468259 0.0550105 0.881877 -0.26675 0.118321 0.956475 
-0.324418 0.324418 0.888541 0.400776 0.314219 0.860607 0.551852 0.0726189 0.830774 
0.627418 0.0276262 0.778193 -0.475931 -0 0.879483 -0.482302 -0 0.876005 
-0.431156 0.0946939 0.897295 0.652655 0.0767056 0.753763 0.685652 0.025149 0.727495 
-0.493043 -0 0.870005 -0.488297 -0 0.872677 -0.492821 0.0300076 0.869613 
0.69048 0.0246946 0.72293 0.707086 0.0075854 0.707086 -0.493043 -0 0.870005 
-0.488297 -0 0.872677 -0.493043 -0 0.870005 0.69048 -0.0246946 0.72293 
0.707086 -0.0075854 0.707086 -0.493043 -0 0.870005 -0.488283 -0.00782681 0.872651 
-0.493043 -0 0.870005 0.652655 -0.0767056 0.753763 0.689325 -0.0252837 0.724011 
-0.500201 -0.0764017 0.862532 -0.517562 -0.102777 0.849451 -0.492371 -0.0521911 0.868819 
0.423539 -0.328524 0.844208 0.547449 -0.145203 0.824146 0.634491 -0.108281 0.765308 
-0.533942 -0.313278 0.785343 -0.551905 -0.325498 0.767758 -0.452642 -0.229157 0.861744 
0.339699 -0.350151 0.872925 0.327954 -0.232752 0.915572 0.527389 -0.282198 0.801389 
0.571341 -0.28597 0.769279 -0.548782 -0.372493 0.74839 -0.504518 -0.487285 0.712752 
-0.454066 -0.454066 0.766582 -0.231669 -0.432849 0.87119 -0.022993 -0.436495 0.899413 
0.0985199 -0.344647 0.933548 0.179023 -0.182947 0.966686 0.390826 -0.194915 0.899591 
0.554005 -0.29787 0.7774 0.570875 -0.31019 0.760187 -0.496221 -0.501602 0.708632 
-0.46297 -0.498912 0.73263 -0.399069 -0.460266 0.793032 -0.160817 -0.299798 0.94035 
-0 -0.205925 0.978568 0.192291 -0.219218 0.956539 0.496626 -0.348138 0.795087 
0.538863 -0.362634 0.760344 -0.45564 -0.497677 0.738045 -0.378152 -0.528929 0.75976 
-0.320484 -0.501823 0.803407 -0 -0.457859 0.889025 0.320484 -0.501823 0.803407 
0.379766 -0.523072 0.763003 0.5181 -0.400519 0.755749 -0.322386 -0.543131 0.775291 
-0 -0.583704 0.811966 0.323921 -0.545717 0.772831 -0.29731 0.66821 0.681984 
-0.309788 0.679144 0.665428 -0.378228 0.666324 0.642617 0.0526983 0.653674 0.75494 
0.0176442 0.701283 0.712665 0.358176 0.56843 0.740673 0.349656 0.600234 0.719347 
0.409424 0.57147 0.711192 -0.424437 0.628788 0.651521 -0.424384 0.648885 0.631543 
-0.441852 0.634337 0.634337 -0.410519 0.580764 0.702984 -0.427046 0.654282 0.624137 
0.407321 0.456744 0.79087 0.506426 0.50883 0.69615 0.486995 0.475838 0.732403 
0.534965 0.487358 0.690141 -0.556225 0.399915 0.728479 -0.558527 0.461067 0.689539 
-0.573328 0.413584 0.707279 -0.4511 0.431737 0.781097 0.461818 0.428368 0.776676 
0.671966 0.383283 0.633684 0.671605 0.371467 0.641061 0.689539 0.363487 0.62643 
-0.560497 0.230162 0.795531 -0.489959 0.396311 0.776452 0.691271 0.356441 0.628566 
0.79598 0.303553 0.523709 -0.324602 0.491404 0.808181 -0.346491 0.522273 0.779214 
-0.362409 0.516482 0.775826 -0.271612 0.337754 0.901193 -0.427889 0.41911 0.800786 
-0.475166 0.170977 0.863125 0.782562 0.369793 0.500849 -0.377983 0.377983 0.845137 
-0.415157 0.457696 0.786231 -0.450296 0.427298 0.783996 -0.182426 0.193778 0.963935 
-0.210753 0.178006 0.961196 -0.430162 0.244101 0.869123 0.772377 0.340136 0.536414 
0.758718 0.272559 0.591658 0.769879 0.30376 0.561263 -0.39114 0.39114 0.833078 
-0.453661 0.432275 0.779314 -0.427646 0.45477 0.781219 -0.166485 0.156831 0.973492 
-0.118605 0.028346 0.992537 -0.344647 0.0985199 0.933548 0.710468 0.0804107 0.699121 
0.738514 0.131015 0.661387 -0.327419 0.385768 0.862543 -0.390137 0.458587 0.798431 
-0.356635 0.470861 0.806909 -0.156831 0.166485 0.973492 -0.0285359 0.0285359 0.999185 
-0.118653 -0 0.992936 -0.41751 0.0313368 0.908132 0.694694 0.00771604 0.719264 
0.706901 0.0241471 0.706901 -0.446628 0.40047 0.800092 -0.448145 0.421528 0.78834 
-0.471198 0.397176 0.787543 -0.204166 0.348792 0.914692 -0.323314 0.48091 0.814981 
-0.0939218 0.158347 0.982906 -0.0285359 0.0285359 0.999185 -0 -0 1 
-0.118653 -0 0.992936 -0.417715 -0 0.908578 0.703283 -0 0.71091 
0.707107 -0 0.707107 -0.455142 0.108776 0.883749 -0.580695 0.101409 0.807781 
-0.118172 0.0899297 0.988913 -0 0.0285475 0.999592 -0 -0 1 
-0 -0 1 -0.118653 -0 0.992936 -0.417715 -0 0.908578 
0.707107 -0 0.707107 0.707107 -0 0.707107 -0.457859 -0 0.889025 
-0.580631 -0 0.814167 -0.118653 -0 0.992936 -0 -0 1 
-0 -0 1 -0 -0 1 -0.118653 -0 0.992936 
-0.417715 -0 0.908578 0.707086 -0.0075854 0.707086 0.706901 -0.0241471 0.706901 
-0.457859 -0 0.889025 -0.580631 -0 0.814167 -0.118653 -0 0.992936 
-0 -0 1 -0 -0.0285475 0.999592 -0 -0.0905643 0.995891 
-0.118172 -0.0899297 0.988913 -0.417603 -0.023221 0.908333 0.724011 -0.0252837 0.689325 
0.742804 -0.0755904 0.665229 -0.457859 -0 0.889025 -0.580631 -0 0.814167 
-0.118605 -0.028346 0.992537 0.0284062 -0.099372 0.994645 0.0928675 -0.216425 0.971872 
0.0665946 -0.38636 0.919941 -0.167704 -0.372294 0.912838 -0.475803 -0.163188 0.864281 
0.763585 -0.127158 0.633063 0.817952 -0.172543 0.548801 -0.430461 -0.110266 0.895849 
-0.567154 -0.102591 0.817197 -0.019694 -0.197047 0.980196 0.20241 -0.405743 0.891293 
0.304462 -0.593345 0.745147 0.284593 -0.616303 0.734287 0.126709 -0.578943 0.805463 
-0.231989 -0.546268 0.804843 -0.410456 -0.556512 0.722371 -0.558535 -0.431957 0.708132 
0.787238 -0.38012 0.485556 0.798614 -0.385358 0.462293 -0.348668 -0.437325 0.828962 
-0.38363 -0.434405 0.814936 0.182883 -0.520831 0.83384 0.259199 -0.566538 0.782209 
0.335648 -0.551166 0.763908 0.313849 -0.613221 0.724885 -0.562874 -0.525702 0.637817 
-0.571111 -0.540927 0.617438 -0.585462 -0.569611 0.576868 0.672427 -0.354159 0.649933 
0.779989 -0.402676 0.479029 0.793135 -0.396039 0.462698 -0.344701 -0.467251 0.814161 
0.193292 -0.567317 0.800494 -0.590122 -0.582896 0.558559 -0.556973 -0.563955 0.609702 
-0.587637 -0.587637 0.556207 0.733917 -0.387652 0.557755 0.75704 -0.38587 0.527252 
-0.587637 -0.587637 0.556207 -0.543111 -0.566318 0.619931 -0.582896 -0.590122 0.558559 
0.553279 -0.553279 0.622707 0.620249 -0.551096 0.558198 0.729975 -0.421165 0.53829 
-0.561476 -0.600977 0.568834 -0.333268 -0.665222 0.668141 -0.433044 -0.654091 0.620192 
0.0177444 -0.716713 0.697142 0.354985 -0.73031 0.583638 0.419068 -0.72366 0.54836 
0.558198 -0.620249 0.551096 -0.326835 -0.685166 0.650943 0.0535335 -0.766905 0.639524 
0.36626 -0.757389 0.540569 -0.297929 0.781827 0.54771 -0.291986 0.811184 0.50668 
-0.341663 0.761151 0.551286 -0 0.811966 0.583704 -0 0.889025 0.457859 
0.299372 0.779409 0.550362 0.291986 0.811184 0.50668 0.342773 0.75935 0.553077 
-0.464937 0.645013 0.606458 -0.459506 0.647063 0.608411 -0.500968 0.642807 0.579508 
0.525764 0.556344 0.643469 0.484213 0.615273 0.622075 0.570457 0.52543 0.63127 
-0.556447 0.676269 0.482728 -0.557894 0.701782 0.443007 -0.568747 0.694477 0.440713 
-0.497482 0.662665 0.559809 0.646207 0.46014 0.608841 0.63578 0.469541 0.612629 
0.698781 0.399039 0.593695 -0.564764 0.547706 0.617301 -0.560387 0.617335 0.552144 
-0.499239 0.596291 0.628647 0.798787 0.221734 0.559262 -0.405515 0.575448 0.710223 
-0.415453 0.585988 0.695713 -0.350666 0.559913 0.750687 -0.468844 0.434876 0.76881 
0.781511 0.301079 0.546436 -0.437494 0.437494 0.78562 -0.38368 0.434621 0.814797 
-0.423521 0.392621 0.816382 -0.414706 0.548159 0.72632 -0.337229 0.55779 0.758384 
0.760475 0.338752 0.554008 0.759006 0.396139 0.516705 0.71742 0.393301 0.574998 
-0.526077 0.441793 0.726679 -0.447167 0.434481 0.781836 0.729606 0.365685 0.577883 
-0.365389 0.51289 0.77681 -0.323314 0.48091 0.814981 -0.380913 0.466006 0.798588 
-0.423537 0.531215 0.733776 -0.431746 0.447819 0.782977 0.718249 0.33381 0.610483 
0.722051 0.238961 0.64926 0.712963 0.270225 0.647041 -0.456106 0.52186 0.720853 
-0.441693 0.446837 0.777974 -0.557412 0.453562 0.695395 -0.365389 0.51289 0.77681 
0.705823 0.0602335 0.705823 0.720924 0.0784145 0.688564 -0.711223 0.329213 0.621112 
-0.692006 0.360389 0.625497 -0.734773 0.331565 0.591755 0.707107 -0 0.707107 
0.72315 -0 0.690691 -0.708868 0.104576 0.697546 -0.74839 0.141437 0.648003 
0.707107 -0 0.707107 0.72315 -0 0.690691 -0.69067 0.0077575 0.723129 
-0.72293 0.0246946 0.69048 0.705823 -0.0602335 0.705823 0.720924 -0.0784145 0.688564 
-0.690691 -0 0.72315 -0.72315 -0 0.690691 0.721944 -0.239549 0.649164 
0.709562 -0.286084 0.643955 -0.69067 -0.0077575 0.723129 -0.72293 -0.0246946 0.69048 
0.784564 -0.399297 0.474365 0.746563 -0.363489 0.557243 -0.711421 -0.122566 0.691995 
-0.756925 -0.169263 0.631202 0.132448 -0.690652 0.710955 -0.26514 -0.634421 0.726093 
0.847028 -0.420845 0.324704 -0.741533 -0.450606 0.497075 -0.755651 -0.463137 0.463137 
0.439487 -0.61879 0.651114 0.38343 -0.653063 0.653063 0.35939 -0.665895 0.653776 
0.0799082 -0.721689 0.68759 -0.290464 -0.71532 0.635569 -0.562874 -0.637817 0.525702 
-0.426879 -0.712513 0.556866 0.824533 -0.380989 0.418321 0.825402 -0.396022 0.402341 
-0.741533 -0.497075 0.450606 -0.344701 -0.814161 0.467251 -0.38363 -0.814936 0.434405 
0.193292 -0.800494 0.567317 0.259199 -0.782209 0.566538 0.439487 -0.651114 0.61879 
-0.570447 -0.701178 0.427715 -0.63271 -0.641586 0.433641 -0.644577 -0.678794 0.351794 
0.834507 -0.333855 0.438336 -0.348668 -0.828962 0.437325 0.182883 -0.83384 0.520831 
-0.659704 -0.670361 0.339717 -0.637988 -0.637988 0.43121 -0.66566 -0.66566 0.337335 
0.72366 -0.54836 0.419068 0.757389 -0.540569 0.36626 -0.66566 -0.66566 0.337335 
-0.620192 -0.654091 0.433044 -0.662067 -0.672763 0.330239 0.550934 -0.747122 0.371862 
0.572549 -0.756139 0.316925 0.73031 -0.583638 0.354985 -0.650943 -0.685166 0.326835 
-0.34058 -0.861115 0.377474 -0.377474 -0.861115 0.34058 0.225629 -0.90361 0.364115 
0.290942 -0.910613 0.293492 0.453067 -0.862552 0.225242 0.543154 -0.779873 0.311096 
-0.342079 -0.875194 0.342079 0.243898 -0.91968 0.307738 -0.170174 0.688897 0.704601 
-0.170174 0.704601 0.688897 -0.194547 0.692344 0.694846 -0.0348496 0.711079 0.702248 