# vtk DataFile Version 4.0
vtk output
ASCII
DATASET POLYDATA
POINTS 1242 float
-28 -44 3.51424 -28 -44.71 4 -26.8639 -44 4 
-30 -44 3.40028 -30 -44.8267 4 -32 -44 3.40028 
-32 -44.8267 4 -34 -44 3.8579 -34 -44.1971 4 
-34.1971 -44 4 -28 -42 3.66056 -27.3793 -42 4 
-30 -42 3.40028 -32 -42 3.40028 -34 -42 3.8579 
-34.1971 -42 4 -28 -41.5167 4 -30 -41.1733 4 
-32 -41.1733 4 -34 -41.8029 4 -26 -46 5.51754 
-26 -46.5506 6 -25.3241 -46 6 -28 -46 5 
-28 -47 6 -30 -46 5 -30 -47 6 
-32 -46 5 -32 -47 6 -34 -46 5.42962 
-34 -46.5704 6 -34.772 -46 6 -26 -44 4.49688 
-24.606 -44 6 -36 -44 5.42962 -36 -44.772 6 
-36.5704 -44 6 -26 -42 4.85997 -24.7383 -42 6 
-36 -42 5.37653 -36.6785 -42 6 -26 -40 5.71579 
-25.5316 -40 6 -28 -40 5.10789 -30 -40 5 
-32 -40 5 -34 -40 5.37653 -35.1352 -40 6 
-36 -40.8648 6 -26 -39.6048 6 -28 -39.0366 6 
-30 -39 6 -32 -39 6 -34 -39.3215 6 
-24 -48 7.84004 -24 -48.1473 8 -23.7434 -48 8 
-26 -48 7.29089 -26 -48.5564 8 -28 -48 7.17329 
-28 -48.5997 8 -30 -48 7.17329 -30 -48.5997 8 
-32 -48 7.17329 -32 -48.5997 8 -34 -48 7.62978 
-34 -48.2835 8 -34.4961 -48 8 -22 -46 7.5859 
-22 -46.6345 8 -21.3324 -46 8 -24 -46 6.7536 
-36 -46 7 -36 -46.9592 8 -36.9592 -46 8 
-20 -44 7.71648 -20 -44.4961 8 -19.6127 -44 8 
-22 -44 7.08593 -24 -44 6.50138 -38 -44 7.56113 
-38 -44.5798 8 -38.3654 -44 8 -20 -42 7.66056 
-19.4329 -42 8 -22 -42 7.08593 -24 -42 6.55635 
-38 -42 7.14674 -38.8533 -42 8 -20 -41.1733 8 
-21 -40 8 -22 -40 7.53615 -24 -40 6.79105 
-36 -40 6.4141 -38 -40 7.31585 -38.8734 -40 8 
-22 -39 8 -23.087 -38 8 -24 -38 7.57918 
-26 -38 7.10789 -28 -38 7 -30 -38 7 
-32 -38 7 -34 -38 7.10789 -36 -38 7.31585 
-38 -38 7.8579 -38.1971 -38 8 -24 -37.3241 8 
-26 -36.8624 8 -28 -36.8267 8 -30 -36.8267 8 
-32 -36.8267 8 -34 -36.8624 8 -36 -37 8 
-38 -37.7928 8 -22 -48 9.36555 -22 -48.4141 10 
-21.3324 -48 10 -24 -48.9141 10 -26 -49 10 
-28 -49 10 -30 -49 10 -32 -49 10 
-34 -48.9141 10 -36 -48 9.5039 -36 -48.2835 10 
-36.3702 -48 10 -20 -46 9.04077 -20 -46.9592 10 
-19 -46 10 -38 -46 9.5039 -38 -46.3702 10 
-38.2835 -46 10 -18 -44 9.29341 -18 -44.8977 10 
-17.1425 -44 10 -39.209 -44 10 -16 -42 9.71648 
-16 -42.4961 10 -15.6298 -42 10 -18 -42 8.79105 
-40 -42.3738 10 -40 -42 9.68765 -40.205 -42 10 
-16 -40 9.29415 -14.8715 -40 10 -18 -40 8.91407 
-20 -40 8.46385 -40 -40 9.17329 -40.5997 -40 10 
-14 -38 9.92261 -14 -38.1969 10 -13.9226 -38 10 
-16 -38 9.08593 -18 -38 9 -20 -38 8.91407 
-22 -38 8.46385 -40 -38 9.80292 -40.1421 -38 10 
-14 -36 9.92261 -13.9226 -36 10 -16 -36 9.08593 
-18 -36 9 -20 -36 9 -22 -36 8.91407 
-24 -36 8.70585 -26 -36 8.59972 -28 -36 8.59972 
-30 -36 8.59972 -32 -36 8.59972 -34 -36 8.59972 
-36 -36 8.68415 -38 -36 9.40674 -38.5933 -36 10 
-40 -37.7928 10 -14 -35.8372 10 -15.3793 -34 10 
-16 -34 9.66056 -18 -34 9.40028 -20 -34 9.40028 
-22 -34 9.40028 -24 -34 9.40028 -26 -34 9.40028 
-28 -34 9.40028 -30 -34 9.40028 -32 -34 9.40028 
-34 -34 9.44365 -36 -34 9.85274 -36.2413 -34 10 
-38 -35.3326 10 -16 -33.4003 10 -18 -33 10 
-20 -33.0477 10 -22 -33.1376 10 -24 -33.1733 10 
-26 -33.1733 10 -28 -33.1733 10 -30 -33.1733 10 
-32 -33.1733 10 -34 -33.2909 10 -36 -33.84 10 
-20 -48 11.5039 -20 -48.2835 12 -19.6127 -48 12 
-22 -48.9141 12 -24 -49 12 -26 -49 12 
-28 -49 12 -30 -49 12 -32 -49 12 
-34 -49 12 -36 -48.5997 12 -36.8267 -48 12 
-18 -46 11.1023 -18 -46.7066 12 -17.1425 -46 12 
-38 -46.8267 12 -38.5997 -46 12 -16 -44 11.0408 
-16 -44.9592 12 -15.0408 -44 12 -39.2942 -44 12 
-14 -42 11.6298 -14 -42.4961 12 -13.7165 -42 12 
-40 -42.5997 12 -40.3394 -42 12 -14 -40 10.8329 
-13.209 -40 12 -40.9141 -40 12 -12.791 -38 12 
-40.5997 -38 12 -12.6841 -36 12 -39.3159 -36 12 
-40 -37.0477 12 -14 -34 10.86 -12.9234 -34 12 
-38 -34 11.7587 -38.1473 -34 12 -14 -32 11.3159 
-13.1266 -32 12 -16 -32 10.7058 -18 -32 10.5997 
-20 -32 10.6841 -22 -32 10.8921 -24 -32 11 
-26 -32 11 -28 -32 11 -30 -32 11 
-32 -32 11 -34 -32 11.3215 -35.0633 -32 12 
-36 -32.498 12 -38 -33.84 12 -14 -30 11.6606 
-13.5167 -30 12 -16 -30 11.1775 -18 -30 11.2942 
-20 -30 11.7165 -20.668 -30 12 -22 -30.6785 12 
-24 -31 12 -26 -31 12 -28 -31 12 
-30 -31 12 -32 -31 12 -34 -31.3765 12 
-14 -29.3793 12 -16 -28.4049 12 -18 -28.8715 12 
-20 -29.6298 12 -20 -48.5997 14 -19.0477 -48 14 
-22 -49 14 -24 -49 14 -26 -49 14 
-28 -49 14 -30 -49 14 -32 -49 14 
-34 -48.9141 14 -36 -48.2835 14 -36.3702 -48 14 
-16 -46 13.5039 -16 -46.2835 14 -15.6298 -46 14 
-18 -47.3158 14 -38 -46.3702 14 -38.2835 -46 14 
-14 -44 13.4202 -14 -44.4389 14 -13.6346 -44 14 
-39 -44 14 -12.791 -42 14 -40 -42 12.8267 
-39.5362 -42 14 -12.3394 -40 14 -40 -40.8267 14 
-40.3394 -40 14 -12 -38 13.4329 -12 -39 14 
-11.6606 -38 14 -40.205 -38 14 -12 -36 13 
-11.3159 -36 14 -39.2942 -36 14 -40 -37.6016 14 
-12 -34 13 -11.1079 -34 14 -38.5563 -34 14 
-12 -32 13 -11 -32 14 -36 -32 12.9367 
-36.6785 -32 14 -38 -33.2909 14 -12 -30 13.1079 
-11.0366 -30 14 -22 -30 12.6235 -24 -30 13 
-26 -30 13 -28 -30 13 -30 -30 13.0366 
-32 -30 13.1266 -34 -30 13.8029 -34.1971 -30 14 
-36 -31.3765 14 -12 -28 13.7158 -11.6048 -28 14 
-14 -28 12.86 -16 -28 12.3302 -18 -28 12.7298 
-20 -28 13.4296 -21 -28 14 -22 -28.5704 14 
-24 -29 14 -26 -29 14 -28 -29 14 
-30 -29.1079 14 -32 -29.3158 14 -34 -29.8579 14 
-12 -27.5027 14 -14 -26.7383 14 -16 -26.5833 14 
-18 -26.7091 14 -20 -27.3498 14 -20 -48.5997 16 
-19 -48 16 -22 -49 16 -24 -49 16 
-26 -49 16 -28 -49 16 -30 -49 16 
-32 -48.9141 16 -34 -48.4638 16 -36 -48 14.5694 
-34.8228 -48 16 -16 -46.5997 16 -15.1733 -46 16 
-18 -47.4003 16 -36 -47.2474 16 -38 -46 14.668 
-37.3525 -46 16 -14 -44.9634 16 -13.1079 -44 16 
-38 -45.1834 16 -38.7058 -44 16 -12 -42 15.6262 
-12 -42.3123 16 -11.795 -42 16 -39.0859 -42 16 
-12 -40 14.5997 -11.2942 -40 16 -40 -40 14.5997 
-39.2942 -40 16 -11 -38 16 -40 -38 14.3984 
-39.2942 -38 16 -10.4638 -36 16 -39.0859 -36 16 
-10 -34 15.4494 -10 -34.913 16 -9.57918 -34 16 
-38.5997 -34 16 -10 -32 15.0366 -9.10789 -32 16 
-37 -32 16 -38 -33.1733 16 -10 -30 15 
-9 -30 16 -34.8267 -30 16 -36 -31 16 
-10 -28 15.1079 -9.03659 -28 16 -22 -28 14.5704 
-24 -28 15.0366 -26 -28 15.1266 -28 -28 15.1733 
-30 -28 15.6876 -30.3984 -28 16 -32 -28.7058 16 
-34 -29.4003 16 -10 -26 15.3582 -9.24187 -26 16 
-12 -26 14.7058 -14 -26 14.5563 -16 -26 14.5014 
-18 -26 14.5563 -20 -26 15 -21.6707 -26 16 
-22 -26.2807 16 -24 -27.0766 16 -26 -27.3158 16 
-28 -27.4003 16 -30 -27.795 16 -10 -24 15.8527 
-9.84004 -24 16 -12 -24 15.0859 -14 -24 15.0859 
-16 -24 15.2942 -18 -24 15.4437 -19.9654 -24 16 
-20 -24.0204 16 -10 -23.7022 16 -11.3793 -22 16 
-12 -22 15.6606 -14 -22 15.6606 -14.9124 -22 16 
-16 -22.6759 16 -18 -23.2617 16 -12 -21.4329 16 
-14 -21.4932 16 -20 -48.5997 18 -19 -48 18 
-22 -49 18 -24 -49 18 -26 -49 18 
-28 -49 18 -30 -48.9141 18 -32 -48.4638 18 
-34 -48 16.9367 -32.9367 -48 18 -16 -46.5997 18 
-15.1733 -46 18 -18 -47.4003 18 -34 -47.4531 18 
-36 -46.3654 18 -36.4389 -46 18 -14 -45 18 
-13 -44 18 -38 -44.1971 18 -38.1421 -44 18 
-12 -42.8267 18 -11.4003 -42 18 -38.5997 -42 18 
-11 -40 18 -38.5997 -40 18 -10.7058 -38 18 
-38.5997 -38 18 -10 -36 17.1733 -10 -36.5997 18 
-9.66056 -36 18 -38.5997 -36 18 -8.79105 -34 18 
-38.205 -34 18 -8 -32 17.6877 -8 -32.3738 18 
-7.79495 -32 18 -36.8921 -32 18 -38 -33.6877 18 
-8 -30 17.1733 -7.40028 -30 18 -34.8267 -30 18 
-36 -31.0366 18 -8 -28 17.1733 -7.40028 -28 18 
-31 -28 18 -32 -28.5997 18 -34 -29.4003 18 
-8 -26 17.5167 -7.66056 -26 18 -22 -26 16.2214 
-24 -26 17.2929 -24.8583 -26 18 -26 -26.6672 18 
-28 -27 18 -30 -27.4003 18 -8 -25.0876 18 
-8.42082 -24 18 -20 -24 16.0164 -22 -24 17.6298 
-22.4438 -24 18 -24 -25.275 18 -10 -22 16.86 
-8.9234 -22 18 -16 -22 16.4208 -18 -22 17.2929 
-18.8166 -22 18 -20 -22.7777 18 -22 -23.7066 18 
-10 -20 17.3582 -9.24187 -20 18 -12 -20 16.8156 
-14 -20 17.1157 -16 -20 17.84 -16.2413 -20 18 
-18 -21.275 18 -10 -18.5017 18 -12 -18.1142 18 
-14 -19.1467 18 -16 -19.8527 18 -20 -48.5997 20 
-19.0477 -48 20 -22 -49 20 -24 -49 20 
-26 -49 20 -28 -48.9141 20 -30 -48.4638 20 
-32 -48 18.9367 -30.9367 -48 20 -16 -46.2835 20 
-15.6298 -46 20 -18 -47.3158 20 -32 -47.4531 20 
-34 -46.498 20 -36 -46 18.5798 -34.7337 -46 20 
-14 -44.5704 20 -13.4296 -44 20 -36 -44.7337 20 
-38 -44 18.1971 -36.5704 -44 20 -12 -42.3702 20 
-11.7165 -42 20 -38 -42 18.8267 -37 -42 20 
-11.0859 -40 20 -38 -40 18.8624 -37.1079 -40 20 
-10.7058 -38 20 -38 -38 18.9523 -37.3159 -38 20 
-10 -36.5997 20 -9.66056 -36 20 -38 -36 19 
-37.4003 -36 20 -8.79105 -34 20 -38 -34 18.3738 
-37.209 -34 20 -8 -32.5671 20 -7.66056 -32 20 
-36.3654 -32 20 -7.08593 -30 20 -34.3702 -30 20 
-36 -31.5611 20 -7 -28 20 -30.9523 -28 20 
-32 -28.6842 20 -34 -29.7165 20 -7.08593 -26 20 
-26 -26 19.972 -26.0197 -26 20 -28 -26.8839 20 
-30 -27.4003 20 -8 -24 18.6759 -7.29415 -24 20 
-24 -24 19.5562 -24.3702 -24 20 -26 -25.9831 20 
-8 -22 19.0905 -7.31585 -22 20 -20 -22 19.9743 
-20.0185 -22 20 -22 -22.9713 20 -24 -23.7066 20 
-8 -20 19.3215 -7.37653 -20 20 -18 -20 19.5562 
-18.3702 -20 20 -20 -21.9831 20 -8 -18.9367 20 
-10 -18 18.3779 -8.68014 -18 20 -12 -18 18.1403 
-13.5695 -18 20 -14 -18.2835 20 -16 -19 20 
-18 -19.7066 20 -10 -17.0337 20 -12 -17 20 
-20 -48.205 22 -19.6707 -48 22 -22 -48.5997 22 
-24 -48.5997 22 -26 -48.5997 22 -28 -48.2835 22 
-30 -48 20.8228 -28.5694 -48 22 -16 -46 20.5694 
-16.8487 -46 22 -18 -46.9663 22 -30 -47.2196 22 
-32 -46.2298 22 -34 -46 20.699 -32.3605 -46 22 
-14 -44 20.8713 -14.8207 -44 22 -16 -45.1308 22 
-34 -44.5492 22 -36 -44 20.5704 -34.4389 -44 22 
-12 -42 20.5694 -12.7804 -42 22 -14 -43.2663 22 
-36 -42 21 -34.9634 -42 22 -12 -40.8228 22 
-11.5362 -40 22 -36 -40 21.3215 -35.3765 -40 22 
-11 -38 22 -36 -38.668 22 -36.2835 -38 22 
-10 -36 20.8267 -10.4638 -36 22 -36.5997 -36 22 
-10 -35.0633 22 -9.45311 -34 22 -36.2835 -34 22 
-8 -32 20.9124 -8.42082 -32 22 -36 -32 20.5798 
-35 -32 22 -36 -33.5039 22 -8 -31.3241 22 
-7.29415 -30 22 -34 -30 20.5694 -33.184 -30 22 
-34 -30.9064 22 -7 -28 22 -30.8624 -28 22 
-32 -28.9234 22 -7 -26 22 -27.2909 -26 22 
-28 -26.5741 22 -30 -27.4003 22 -7 -24 22 
[...]
POINT_DATA 1242
SCALARS scalars unsigned_short
LOOKUP_TABLE default
1 1 1 1 1 1 1 1 1 
1 1 1 1 1 1 1 1 1 
1 1 1 1 1 1 1 1 1 
1 1 1 1 1 1 1 1 1 
1 1 1 1 1 1 1 1 1 
1 1 1 1 1 1 1 1 1 
1 1 1 1 1 1 1 1 1 
1 1 1 1 1 1 1 1 1 
1 1 1 1 1 1 1 1 1 
1 1 1 1 1 1 1 1 1 
1 1 1 1 1 1 1 1 1 
1 1 1 1 1 1 1 1 1 
1 1 1 1 1 1 1 1 1 
1 1 1 1 1 1 1 1 1 
1 1 1 1 1 1 1 1 1 
1 1 1 1 1 1 1 1 1 
1 1 1 1 1 1 1 1 1 
1 1 1 1 1 1 1 1 1 
1 1 1 1 1 1 1 1 1 
1 1 1 1 1 1 1 1 1 
1 1 1 1 1 1 1 1 1 
1 1 1 1 1 1 1 1 1 
1 1 1 1 1 1 1 1 1 
1 1 1 1 1 1 1 1 1 
1 1 1 1 1 1 1 1 1 
1 1 1 1 1 1 1 1 1 
1 1 1 1 1 1 1 1 1 
1 1 1 1 1 1 1 1 1 
1 1 1 1 1 1 1 1 1 
1 1 1 1 1 1 1 1 1 
1 1 1 1 1 1 1 1 1 
1 1 1 1 1 1 1 1 1 
1 1 1 1 1 1 1 1 1 
1 1 1 1 1 1 1 1 1 
1 1 1 1 1 1 1 1 1 
1 1 1 1 1 1 1 1 1 
1 1 1 1 1 1 1 1 1 
1 1 1 1 1 1 1 1 1 
1 1 1 1 1 1 1 1 1 
1 1 1 1 1 1 1 1 1 
1 1 1 1 1 1 1 1 1 
1 1 1 1 1 1 1 1 1 
1 1 1 1 1 1 1 1 1 
1 1 1 1 1 1 1 1 1 
1 1 1 1 1 1 1 1 1 
1 1 1 1 1 1 1 1 1 
1 1 1 1 1 1 1 1 1 
1 1 1 1 1 1 1 1 1 
1 1 1 1 1 1 1 1 1 
1 1 1 1 1 1 1 1 1 
1 1 1 1 1 1 1 1 1 
1 1 1 1 1 1 1 1 1 
1 1 1 1 1 1 1 1 1 
1 1 1 1 1 1 1 1 1 
1 1 1 1 1 1 1 1 1 
1 1 1 1 1 1 1 1 1 
1 1 1 1 1 1 1 1 1 
1 1 1 1 1 1 1 1 1 
1 1 1 1 1 1 1 1 1 
1 1 1 1 1 1 1 1 1 
1 1 1 1 1 1 1 1 1 
1 1 1 1 1 1 1 1 1 
1 1 1 1 1 1 1 1 1 
1 1 1 1 1 1 1 1 1 
1 1 1 1 1 1 1 1 1 
1 1 1 1 1 1 1 1 1 
1 1 1 1 1 1 1 1 1 
1 1 1 1 1 1 1 1 1 
1 1 1 1 1 1 1 1 1 
1 1 1 1 1 1 1 1 1 
1 1 1 1 1 1 1 1 1 
1 1 1 1 1 1 1 1 1 
1 1 1 1 1 1 1 1 1 
1 1 1 1 1 1 1 1 1 
1 1 1 1 1 1 1 1 1 
1 1 1 1 1 1 1 1 1 
1 1 1 1 1 1 1 1 1 
1 1 1 1 1 1 1 1 1 
1 1 1 1 1 1 1 1 1 
1 1 1 1 1 1 1 1 1 
1 1 1 1 1 1 1 1 1 
1 1 1 1 1 1 1 1 1 
1 1 1 1 1 1 1 1 1 
1 1 1 1 1 1 1 1 1 
1 1 1 1 1 1 1 1 1 
1 1 1 1 1 1 1 1 1 
1 1 1 1 1 1 1 1 1 
1 1 1 1 1 1 1 1 1 
1 1 1 1 1 1 1 1 1 
1 1 1 1 1 1 1 1 1 
1 1 1 1 1 1 1 1 1 
1 1 1 1 1 1 1 1 1 
1 1 1 1 1 1 1 1 1 
1 1 1 1 1 1 1 1 1 
1 1 1 1 1 1 1 1 1 
1 1 1 1 1 1 1 1 1 
1 1 1 1 1 1 1 1 1 
1 1 1 1 1 1 1 1 1 
1 1 1 1 1 1 1 1 1 
1 1 1 1 1 1 1 1 1 
1 1 1 1 1 1 1 1 1 
1 1 1 1 1 1 1 1 1 
1 1 1 1 1 1 1 1 1 
1 1 1 1 1 1 1 1 1 
1 1 1 1 1 1 1 1 1 
1 1 1 1 1 1 1 1 1 
1 1 1 1 1 1 1 1 1 
1 1 1 1 1 1 1 1 1 
1 1 1 1 1 1 1 1 1 
1 1 1 1 1 1 1 1 1 
1 1 1 1 1 1 1 1 1 
1 1 1 1 1 1 1 1 1 
1 1 1 1 1 1 1 1 1 
1 1 1 1 1 1 1 1 1 
1 1 1 1 1 1 1 1 1 
1 1 1 1 1 1 1 1 1 
1 1 1 1 1 1 1 1 1 
1 1 1 1 1 1 1 1 1 
1 1 1 1 1 1 1 1 1 
1 1 1 1 1 1 1 1 1 
1 1 1 1 1 1 1 1 1 
1 1 1 1 1 1 1 1 1 
1 1 1 1 1 1 1 1 1 
1 1 1 1 1 1 1 1 1 
1 1 1 1 1 1 1 1 1 
1 1 1 1 1 1 1 1 1 
1 1 1 1 1 1 1 1 1 
1 1 1 1 1 1 1 1 1 
1 1 1 1 1 1 1 1 1 
1 1 1 1 1 1 1 1 1 
1 1 1 1 1 1 1 1 1 
1 1 1 1 1 1 1 1 1 
1 1 1 1 1 1 1 1 1 
1 1 1 1 1 1 1 1 1 
1 1 1 1 1 1 1 1 1 
1 1 1 1 1 1 1 1 1 
1 1 1 1 1 1 1 1 1 
1 1 1 1 1 1 1 1 1 

NORMALS normals float
-0.234004 0.286748 0.928987 -0.202178 0.445021 0.872399 -0.459882 0.219354 0.860461 
-0.0323391 0.347346 0.937179 -0.021044 0.520641 0.853516 0.114652 0.345236 0.931486 
0.105726 0.517838 0.848921 0.436762 0.314508 0.842807 0.431822 0.35006 0.831257 
0.463314 0.310554 0.829998 -0.317022 -0.355699 0.87919 -0.410736 -0.354845 0.83987 
-0.0704962 -0.346663 0.935337 0.114652 -0.345236 0.931486 0.436762 -0.314508 0.842807 
0.462713 -0.310152 0.830483 -0.298324 -0.434964 0.849593 -0.0606935 -0.519796 0.852132 
0.105726 -0.517838 0.848921 0.431261 -0.349605 0.831739 -0.390091 0.528467 0.754024 
-0.344145 0.565468 0.74954 -0.438533 0.440622 0.783289 -0.104559 0.673723 0.731549 
-0.078853 0.717178 0.692414 -0 0.690691 0.72315 -0 0.72315 0.690691 
0.0860936 0.688126 0.720465 0.0860936 0.720465 0.688126 0.344859 0.646516 0.680507 
0.342811 0.665712 0.662804 0.440353 0.61775 0.651517 -0.626274 0.141906 0.76658 
-0.629458 0.0817408 0.772723 0.663122 0.270342 0.697986 0.631511 0.396987 0.666029 
0.678791 0.27671 0.680201 -0.60842 -0.269924 0.746302 -0.587583 -0.135833 0.797681 
0.646296 -0.201672 0.735955 0.657571 -0.154372 0.737407 -0.385791 -0.467266 0.795505 
-0.406837 -0.418778 0.811855 -0.158276 -0.646332 0.746461 -0.0246946 -0.69048 0.72293 
0.0784145 -0.688564 0.720924 0.289937 -0.63151 0.719119 0.379227 -0.525436 0.761645 
0.533765 -0.341256 0.773718 -0.349119 -0.496902 0.794484 -0.0957017 -0.682721 0.724385 
-0.0075854 -0.707086 0.707086 0.0602335 -0.705823 0.705823 0.241096 -0.643364 0.726606 
-0.349779 0.690517 0.63312 -0.343843 0.716059 0.607479 -0.369788 0.692309 0.61965 
-0.136253 0.774935 0.61718 -0.107907 0.860391 0.498079 -0.0233283 0.813945 0.580473 
-0.0117418 0.888963 0.457828 -0 0.814167 0.580631 -0 0.889025 0.457859 
0.0810565 0.811488 0.57872 0.0785053 0.886281 0.456446 0.322386 0.775291 0.543131 
0.320484 0.803407 0.501823 0.379766 0.763003 0.523072 -0.460507 0.408686 0.787977 
-0.482782 0.491556 0.724772 -0.49544 0.463373 0.734728 -0.463393 0.295303 0.835502 
0.568968 0.568968 0.593759 0.555646 0.625371 0.547877 0.622881 0.560567 0.545696 
-0.501809 0.258993 0.825294 -0.530978 0.332974 0.779224 -0.53711 0.272304 0.79835 
-0.316581 0.132446 0.939273 -0.548187 0.0538693 0.834619 0.739981 0.335563 0.582946 
0.726824 0.410358 0.550758 0.760825 0.355348 0.543022 -0.447707 -0.174368 0.877015 
-0.47732 -0.128429 0.869294 -0.30006 -0.123991 0.945828 -0.501786 -0.0798528 0.861298 
0.695077 0.0347217 0.718096 0.740548 0.115581 0.661989 -0.431231 -0.248353 0.867387 
-0.394405 -0.353565 0.848196 -0.405285 -0.340344 0.848475 -0.432717 -0.257769 0.863893 
0.425717 -0.425717 0.798455 0.549769 -0.162315 0.819395 0.63811 -0.104407 0.762833 
-0.384436 -0.369259 0.846083 -0.332676 -0.438473 0.834906 -0.311314 -0.478264 0.821186 
-0.137563 -0.616275 0.775423 -0.0248272 -0.686389 0.72681 -0 -0.690691 0.72315 
0.0246946 -0.69048 0.72293 0.0774159 -0.64442 0.760743 0.175701 -0.524754 0.832924 
0.436089 -0.42177 0.794944 0.462648 -0.417655 0.781998 -0.246699 -0.484519 0.839274 
-0.0719052 -0.579597 0.811725 -0.00633117 -0.605269 0.795996 -0 -0.605281 0.796012 
0.00633117 -0.605269 0.795996 0.029831 -0.585221 0.810325 0.143356 -0.551733 0.821608 
0.433015 -0.443363 0.78481 -0.457286 0.73601 0.499178 -0.407866 0.810513 0.420374 
-0.471394 0.745961 0.470457 -0.164651 0.962769 0.214398 -0.028315 0.991451 0.127368 
-0 0.992936 0.118653 -0 0.992936 0.118653 0.028346 0.992537 0.118605 
0.193365 0.961883 0.193365 0.523072 0.763003 0.379766 0.501823 0.803408 0.320484 
0.546906 0.771694 0.324627 -0.563947 0.548507 0.617336 -0.563947 0.617336 0.548507 
-0.587782 0.572063 0.572063 0.747122 0.550934 0.371862 0.754955 0.573744 0.317586 
0.779873 0.543154 0.311096 -0.596574 0.401989 0.694625 -0.593191 0.507257 0.625152 
-0.583343 0.474905 0.65892 0.862552 0.453067 0.225242 -0.537849 0.338142 0.772256 
-0.55682 0.388959 0.733936 -0.566205 0.352609 0.745036 -0.486162 0.076323 0.87053 
0.871701 0.380397 0.308926 0.863322 0.334056 0.378261 0.876548 0.353429 0.326729 
-0.401769 0.170989 0.899636 -0.581118 0.261853 0.770542 -0.242691 -0.0652415 0.967907 
-0.352595 -0.320941 0.879018 0.816535 -0.0240107 0.576796 0.901281 -0.0119045 0.433071 
-0.664567 0.164164 0.728973 -0.671751 0.179243 0.718765 -0.678121 0.163779 0.716469 
-0.226098 0.063712 0.972019 -0.0570021 -0.0285011 0.997967 -0.157076 -0.157076 0.975015 
-0.332292 -0.351135 0.875378 0.791558 -0.408736 0.45428 0.806359 -0.410877 0.4254 
-0.653147 -0.195162 0.73165 -0.666068 -0.193977 0.720226 -0.223819 -0.155016 0.962224 
-0.028346 -0.118605 0.992537 -0.0282399 -0.146401 0.988822 -0.0916553 -0.267507 0.959187 
-0.0942467 -0.439963 0.893057 -0.0294619 -0.519768 0.853799 -0 -0.528153 0.849149 
-0 -0.528153 0.849149 -0 -0.528153 0.849149 0.0217763 -0.523382 0.85182 
0.16647 -0.550014 0.818396 0.508784 -0.603218 0.614221 0.614221 -0.603218 0.508784 
0.794254 -0.434832 0.42436 -0.653435 -0.208888 0.727591 -0.399511 -0.415975 0.816918 
-0.307509 -0.422086 0.852808 -0.0683194 -0.416739 0.906455 -0 -0.427548 0.903993 
-0 -0.466476 0.884534 -0 -0.51223 0.858848 -0 -0.528153 0.849149 
-0 -0.528153 0.849149 -0 -0.528153 0.849149 0.0112152 -0.52812 0.849096 
0.101765 -0.558876 0.822983 0.334301 -0.633737 0.697582 0.365009 -0.641136 0.675065 
0.560427 -0.60979 0.560427 -0.282882 -0.433805 0.855448 -0.0467362 -0.481775 0.875048 
0.0237897 -0.512416 0.858408 0.0214417 -0.566606 0.82371 0.00636563 -0.599528 0.800328 
-0 -0.605281 0.796012 -0 -0.605281 0.796012 -0 -0.605281 0.796012 
0.0228084 -0.605123 0.795805 0.130357 -0.632511 0.763503 0.340503 -0.648615 0.680702 
-0.52078 0.764258 0.380391 -0.491756 0.80876 0.322619 -0.526576 0.782692 0.331829 
-0.194372 0.96689 0.165356 -0.0285359 0.999185 0.0285359 0 1 -0 
0 1 -0 0 1 -0 0 1 -0 
0.118653 0.992936 -0 0.457859 0.889025 -0 0.593652 0.804722 -0 
-0.590778 0.622609 0.513167 -0.591293 0.688477 0.419967 -0.581023 0.656299 0.481335 
0.790456 0.612518 -0 0.858848 0.51223 -0 -0.584008 0.539167 0.606823 
-0.584008 0.606823 0.539167 -0.624956 0.548464 0.555533 0.899432 0.432183 -0.06511 
-0.741852 0.363045 0.563786 -0.737111 0.40152 0.543552 -0.76763 0.353437 0.534628 
0.879186 0.456172 -0.137619 0.885139 0.438088 -0.156868 -0.732347 0.280715 0.620377 
-0.833812 0.233821 0.500084 0.995731 0.0652662 -0.0652662 -0.855028 0.143465 0.498343 
0.915771 -0.401518 0.0120959 -0.82712 -0.0263717 0.561406 0.826757 -0.545006 0.139434 
0.865494 -0.498544 0.0487268 -0.625083 -0.272974 0.73127 -0.71965 -0.100542 0.687019 
0.675065 -0.641136 0.365009 0.697582 -0.633737 0.334301 -0.508007 -0.18771 0.840651 
-0.612219 -0.110058 0.782991 -0.195899 -0.381566 0.903344 -0.00786447 -0.475916 0.879456 
0.0732722 -0.540345 0.838247 0.0774159 -0.64442 0.760743 0.0246946 -0.69048 0.72293 
-0 -0.690691 0.72315 -0 -0.690691 0.72315 -0 -0.690691 0.72315 
0.0615951 -0.689379 0.721777 0.264963 -0.712322 0.649916 0.39623 -0.737585 0.546782 
0.4685 -0.74901 0.4685 0.680702 -0.648615 0.340503 -0.438756 -0.321459 0.839141 
-0.497438 -0.29766 0.814833 -0.0925274 -0.371768 0.923703 0.137265 -0.464756 0.874735 
0.282478 -0.56001 0.778842 0.286356 -0.595634 0.75048 0.218954 -0.652407 0.725551 
0.0602335 -0.705823 0.705823 -0 -0.707107 0.707107 -0 -0.707107 0.707107 
-0 -0.71091 0.703283 0.0779979 -0.717094 0.692599 0.299615 -0.716875 0.62954 
-0.425394 -0.406078 0.80879 -0.0505218 -0.627235 0.77719 0.199995 -0.590282 0.782029 
0.298853 -0.58085 0.757166 -0.426184 0.901109 0.0798187 -0.509817 0.854054 0.103334 
-0.118605 0.992537 0.028346 0 1 -0 0 1 -0 
0 1 -0 0 1 -0 0.0285359 0.999185 -0.0285359 
0.194672 0.968382 -0.156008 0.506351 0.810656 -0.294016 0.552051 0.778953 -0.297442 
-0.569267 0.736024 0.366338 -0.555383 0.772407 0.308118 -0.580617 0.750888 0.314724 
-0.535105 0.830118 0.156737 0.779554 0.565027 -0.27026 0.810136 0.524305 -0.262268 
-0.72366 0.54836 0.419068 -0.73031 0.583638 0.354985 -0.757389 0.540569 0.36626 
0.926826 0.331985 -0.175441 -0.842006 0.308898 0.442275 0.875931 0.41857 -0.239884 
0.882249 0.343328 -0.322121 -0.838553 0.266666 0.475098 0.876912 0.246655 -0.412536 
0.885139 0.156868 -0.438088 -0.850576 0.218961 0.478097 -0.839383 0.260229 0.477197 
-0.856563 0.240573 0.456536 0.897491 -0.272236 -0.346984 -0.82861 0.0615304 0.556435 
-0.840597 0.137296 0.523971 0.908216 -0.412317 -0.0716821 0.900461 -0.309464 -0.305618 
-0.743594 -0 0.668632 -0.7546 0.0767908 0.651677 0.832768 -0.543961 0.102975 
-0.694505 -0.0245627 0.719068 -0.710811 0.0166553 0.703186 0.546782 -0.737585 0.39623 
0.649916 -0.712322 0.264963 0.768362 -0.626426 0.131186 -0.646332 -0.158276 0.746461 
-0.682721 -0.0957017 0.724385 0.257863 -0.657537 0.707921 0.0766851 -0.705025 0.705025 
-0 -0.707107 0.707107 0.0075854 -0.707086 0.707086 0.0252855 -0.731444 0.681433 
0.126551 -0.781443 0.611009 0.423856 -0.79121 0.440832 0.454252 -0.790881 0.410076 
0.62954 -0.716875 0.299615 -0.469627 -0.374444 0.799526 -0.500104 -0.332462 0.799603 
-0.295109 -0.603732 0.740552 -0.0321816 -0.686525 0.726394 0.215148 -0.670956 0.709598 
0.341485 -0.639773 0.688534 0.331567 -0.651619 0.682243 0.292773 -0.668526 0.683635 
0.0846468 -0.708358 0.700759 -0 -0.719285 0.694715 0.0246946 -0.72293 0.69048 
0.0779174 -0.765671 0.638496 0.177668 -0.842248 0.508972 0.43159 -0.800914 0.415052 
-0.410454 -0.382931 0.827582 -0.131734 -0.587911 0.798127 -0.00466608 -0.665309 0.746554 
0.138815 -0.629078 0.764847 0.332348 -0.611726 0.717869 -0.417715 0.908578 -0 
-0.488283 0.872651 0.00782681 -0.118653 0.992936 -0 0 1 -0 
0 1 -0 0 1 -0 0.0285359 0.999185 -0.0285359 
0.157076 0.975015 -0.157076 0.381723 0.853499 -0.354721 0.529246 0.778967 -0.336316 
0.462416 0.794339 -0.39395 -0.526666 0.846757 0.0750043 -0.606409 0.791153 0.0796589 
-0.492921 0.86979 0.0222357 0.568573 0.721347 -0.395454 0.771189 0.563485 -0.296229 
0.69045 0.633983 -0.348345 -0.712851 0.693386 0.105164 -0.760042 0.633801 0.143639 
0.781993 0.543167 -0.305706 0.894015 0.388404 -0.223337 -0.838915 0.40274 0.366089 
-0.831657 0.453192 0.320879 -0.843118 0.416637 0.33995 0.948272 0.175613 -0.264462 
-0.849913 0.264301 0.455843 -0.915629 0.217619 0.338032 0.879186 0.137619 -0.456172 
0.899432 0.06511 -0.432183 -0.934438 0.237548 0.265323 0.897661 -0.239352 -0.37002 
0.910833 -0.0659353 -0.407474 -0.851322 0.343623 0.396452 0.957374 -0.204249 -0.204249 
-0.785398 0.255688 0.563714 -0.814845 0.3315 0.475537 -0.800023 0.303291 0.517666 
0.876529 -0.473832 -0.0847326 -0.729387 0.0790667 0.679517 -0.760975 0.135 0.63458 
0.722656 -0.690218 0.0369847 0.808626 -0.585807 -0.0543561 -0.703186 -0.0166553 0.710811 
-0.723047 0.016942 0.690591 0.596584 -0.796398 0.0991849 0.688961 -0.72134 0.0707214 
-0.642233 -0.0863295 0.761633 -0.696365 -0.0504279 0.715914 0.301353 -0.659044 0.689092 
0.109951 -0.723541 0.681469 0.0279556 -0.787469 0.615721 0.0869235 -0.811085 0.578433 
0.308353 -0.847085 0.432857 0.355472 -0.862369 0.360497 0.400589 -0.895444 0.194185 
0.509392 -0.854089 0.105126 -0.543223 -0.174084 0.821342 -0.649813 -0.166718 0.741585 
-0.215455 -0.342705 0.914403 -0.057643 -0.502557 0.86262 -0 -0.589304 0.807912 
0.122244 -0.560612 0.819006 0.358507 -0.501281 0.787521 0.43438 -0.516 0.738281 
0.416839 -0.541243 0.730275 0.194543 -0.724273 0.6615 0.0800359 -0.850592 0.519699 
0.119547 -0.882649 0.454576 0.331833 -0.858302 0.391413 -0.59024 -0.319642 0.741247 
-0.613584 -0.321062 0.721411 -0.182396 -0.265763 0.946627 0.0623558 -0.301805 0.951328 
0.104378 -0.449811 0.887004 0.162125 -0.554873 0.815985 0.414238 -0.58756 0.695111 
0.418175 -0.586113 0.693975 -0.596832 -0.329079 0.731778 -0.353141 -0.436894 0.827294 
-0.241522 -0.441212 0.864291 0.166932 -0.471468 0.865939 0.235587 -0.509836 0.827385 
0.247598 -0.508224 0.824866 0.220914 -0.615467 0.75657 -0.213121 -0.472113 0.855388 
0.174434 -0.520241 0.836016 -0.417715 0.908578 -0 -0.488283 0.872651 -0.00782681 
-0.118653 0.992936 -0 0 1 -0 0 1 -0 
0.0285359 0.999185 -0.0285359 0.157076 0.975015 -0.157076 0.358302 0.862114 -0.358302 
0.428337 0.808141 -0.404272 0.414181 0.814022 -0.407214 -0.526666 0.846757 -0.0750043 
-0.603377 0.793508 -0.0792606 -0.492921 0.86979 -0.0222357 0.451281 0.781411 -0.430979 
0.55835 0.715515 -0.419861 0.59233 0.691384 -0.413682 -0.688564 0.720924 -0.0784145 
-0.721777 0.689379 -0.061595 0.780996 0.437762 -0.445433 0.795516 0.412254 -0.444074 
-0.814163 0.580628 -0.00326085 -0.888865 0.457777 0.0189314 0.874581 0.107648 -0.472779 
-0.97675 0.205542 0.0609285 0.863826 -0 -0.50379 -0.934092 0.344848 0.0924719 
0.874602 -0 -0.484842 -0.852297 0.442155 0.279444 -0.869233 0.466205 0.164581 
-0.855309 0.484591 0.183354 0.895287 -0.0983713 -0.434493 -0.870859 0.450765 0.196 
0.85419 -0.389537 -0.344414 -0.863954 0.33334 0.37745 -0.872491 0.380741 0.30626 
-0.876548 0.353429 0.326729 0.760042 -0.633801 -0.143639 0.842157 -0.430339 -0.32493 
-0.821099 0.0787279 0.56533 -0.896957 0.0985547 0.430993 0.606409 -0.791153 -0.0796589 
0.712851 -0.693386 -0.105164 -0.81059 -0.0581976 0.582715 -0.887036 -0.0668558 0.456835 
0.48731 -0.870912 0.0635765 0.493028 -0.869979 0.00777973 0.526666 -0.846757 -0.0750043 
-0.816805 -0.224238 0.531552 -0.848604 -0.232445 0.475227 0.43811 -0.527363 0.727975 
0.441297 -0.66457 0.602995 0.485912 -0.729383 0.481549 0.367107 -0.872854 0.321493 
0.211829 -0.965476 0.151604 0.415649 -0.904084 0.0993378 -0.81907 -0.257122 0.512848 
-0.795999 -0.274898 0.539275 0.418327 -0.588987 0.691445 0.498345 -0.671874 0.547939 
0.500816 -0.684113 0.530258 0.527954 -0.631687 0.567658 -0.619536 -0.301444 0.724781 
-0.720318 -0.182682 0.669156 0.319836 -0.531422 0.784408 0.443527 -0.653435 0.613438 
0.515917 -0.698882 0.495372 0.481745 -0.783475 0.392541 0.479321 -0.719824 0.502101 
-0.499386 -0.288317 0.816998 -0.610269 -0.251005 0.751377 -0.0728999 -0.524412 0.848338 
0.228066 -0.678117 0.698673 0.385252 -0.696181 0.605733 0.404614 -0.696731 0.592329 
0.519374 -0.63561 0.571183 -0.437067 -0.533214 0.724331 0.195666 -0.722081 0.663562 
0.33034 -0.755937 0.565186 0.386736 -0.713482 0.584276 -0.425454 0.899566 -0.0988414 
-0.510152 0.854615 -0.0968458 -0.117826 0.986019 -0.117826 0 0.992936 -0.118653 
0.028346 0.992537 -0.118605 0.156008 0.968382 -0.194672 0.354721 0.853499 -0.381723 
0.407214 0.814022 -0.414181 0.404272 0.808141 -0.428337 -0.560346 0.77931 -0.280513 
-0.582618 0.759472 -0.28941 -0.538651 0.83562 -0.107673 0.429191 0.778168 -0.458529 
0.479744 0.727166 -0.490993 0.573421 0.680779 -0.455773 0.522167 0.676205 -0.519701 
-0.663175 0.676845 -0.3195 -0.677769 0.66408 -0.315637 0.637005 0.463829 -0.615701 
0.784488 0.407527 -0.467439 0.677943 0.354337 -0.64408 -0.782483 0.548169 -0.29535 
-0.810656 0.506351 -0.294016 0.805201 0.106686 -0.583326 0.718727 0.110437 -0.686466 
-0.94897 0.275832 -0.15288 0.814652 0.0212059 -0.579562 0.760743 0.0774159 -0.64442 
-0.925907 0.366461 -0.0916616 0.846839 0.0234691 -0.531331 0.838247 0.0732722 -0.540345 
-0.867335 0.469853 -0.164222 -0.855309 0.484591 -0.183354 0.867136 -0.0710782 -0.492974 
0.869613 -0.0300076 -0.492821 -0.863203 0.475463 -0.169749 0.852202 -0.368039 -0.371887 
0.856695 -0.252157 -0.44999 -0.867305 0.476228 -0.144874 -0.882224 0.450366 -0.137299 
0.757389 -0.540569 -0.36626 -0.981797 0.187632 0.0294629 0.585279 -0.756917 -0.290732 
0.73031 -0.583638 -0.354985 -0.992936 -0 0.118653 0.518439 -0.854786 -0.0236893 
0.540115 -0.83789 -0.0788407 0.560346 -0.77931 -0.280513 -0.977926 -0.0934459 0.186892 
0.610451 -0.672821 0.417925 0.611148 -0.672769 0.41699 0.348833 -0.929004 0.123559 
0.450194 -0.892931 -0 -0.840256 -0.219383 0.495824 -0.931842 -0.0735469 0.355332 
0.536816 -0.692574 0.48184 0.552511 -0.686357 0.472911 0.613015 -0.669367 0.419715 
-0.796471 -0.104242 0.595624 -0.860551 -0.020024 0.508971 0.608208 -0.652137 0.452549 
0.60787 -0.652309 0.452755 0.381403 -0.861139 0.336112 0.511813 -0.733748 0.446835 
-0.718819 -0.243635 0.651107 -0.733873 -0.214689 0.644468 0.531677 -0.69524 0.483695 
0.551782 -0.685451 0.475071 0.609635 -0.649659 0.454189 -0.661122 -0.41834 0.622824 
-0.389844 -0.645449 0.656823 -0.531969 -0.622771 0.573729 0.215169 -0.736138 0.641718 
0.453629 -0.791358 0.409846 0.469595 -0.790054 0.394075 0.341041 -0.879154 0.332835 
0.510142 -0.734596 0.447352 -0.300925 -0.806095 0.509563 0.267073 -0.833061 0.48444 
-0.379255 0.863038 -0.333664 -0.417071 0.852261 -0.315756 -0.0993378 0.904084 -0.415649 
0 0.908578 -0.417715 0.0798187 0.901109 -0.426184 0.296011 0.816156 -0.496253 
0.395891 0.792042 -0.464694 0.339347 0.781701 -0.523246 -0.592522 0.739756 -0.318871 
-0.646487 0.696125 -0.312193 -0.60209 0.774629 -0.193488 0.409081 0.700522 -0.584741 
0.424437 0.651521 -0.628788 0.501926 0.671357 -0.545298 0.440261 0.632054 -0.637714 
-0.643969 0.667726 -0.373424 -0.618632 0.657961 -0.429397 -0.639746 0.65143 -0.407877 
0.564082 0.433614 -0.702702 0.662736 0.351255 -0.661363 0.593358 0.357127 -0.721379 
-0.779708 0.532654 -0.329143 -0.716771 0.592154 -0.368229 -0.636257 0.666987 -0.387693 
0.695943 0.1441 -0.70349 0.675055 0.176878 -0.716251 -0.801331 0.479132 -0.358191 
-0.858942 0.404804 -0.313611 0.725551 0.218954 -0.652407 0.70705 0.262274 -0.656728 
-0.93754 0.299204 -0.177469 0.754867 0.266901 -0.599116 0.785237 0.254207 -0.564608 
-0.853015 0.456342 -0.253215 -0.868222 0.38171 -0.317 0.849149 -0 -0.528153 