# vtk DataFile Version 4.0
vtk output
ASCII
DATASET POLYDATA
POINTS 1279 float
-33.4678 -32.8536 -14.355 -33.4678 -33.5366 -14.062 -33.0216 -32.8536 -14.062 
-36.325 -32.8536 -14.547 -36.325 -33.8258 -14.062 -37.4192 -32.8536 -14.062 
-33.4678 -29.4251 -14.9188 -32.2868 -29.4251 -14.062 -36.325 -29.4251 -15.3679 
-39.1821 -31.0308 -14.062 -39.1821 -29.4251 -14.7247 -40.3576 -29.4251 -14.062 
-33.4678 -25.9965 -15.0394 -32.2202 -25.9965 -14.062 -36.325 -25.9965 -15.7693 
-39.1821 -25.9965 -15.4906 -42.0393 -26.9726 -14.062 -42.0393 -25.9965 -14.4671 
-42.5682 -25.9965 -14.062 -33.4678 -22.5679 -15.3365 -32.0915 -22.5679 -14.062 
-36.325 -22.5679 -16.545 -39.1821 -22.5679 -15.9108 -42.0393 -22.5679 -14.9188 
-43.2203 -22.5679 -14.062 -33.4678 -19.1393 -15.3365 -32.0915 -19.1393 -14.062 
-36.325 -19.1393 -16.545 -39.1821 -19.1393 -15.7891 -42.0393 -19.1393 -14.4671 
-42.5682 -19.1393 -14.062 -33.4678 -15.7108 -14.1577 -33.3498 -15.7108 -14.062 
-36.325 -15.7108 -15.074 -39.1821 -15.7108 -14.3904 -39.6971 -15.7108 -14.062 
-42.0393 -18.3362 -14.062 -33.4678 -15.5913 -14.062 -36.325 -14.4964 -14.062 
-39.1821 -15.3168 -14.062 -30.6107 -39.7108 -11.4079 -30.6107 -40.0486 -11.2049 
-30.3292 -39.7108 -11.2049 -33.4678 -39.7108 -12.0616 -33.4678 -41.128 -11.2049 
-36.325 -39.7108 -11.6099 -36.325 -40.3455 -11.2049 -37.0337 -39.7108 -11.2049 
-30.6107 -36.2822 -12.1823 -29.363 -36.2822 -11.2049 -33.4678 -36.2822 -13.0537 
-36.325 -36.2822 -12.932 -39.1821 -37.5399 -11.2049 -39.1821 -36.2822 -11.9163 
-40.1807 -36.2822 -11.2049 -30.6107 -32.8536 -12.4794 -29.2344 -32.8536 -11.2049 
-39.1821 -32.8536 -13.2808 -42.0393 -33.4716 -11.2049 -42.0393 -32.8536 -11.5333 
-42.3676 -32.8536 -11.2049 -30.6107 -29.4251 -12.6335 -29.1821 -29.4251 -11.2049 
-42.0393 -29.4251 -12.9472 -43.7816 -29.4251 -11.2049 -30.6107 -25.9965 -12.6335 
-29.1821 -25.9965 -11.2049 -44.8964 -25.9965 -11.7338 -44.8964 -26.9726 -11.2049 
-45.3014 -25.9965 -11.2049 -30.6107 -22.5679 -12.6335 -29.1821 -22.5679 -11.2049 
-44.8964 -22.5679 -12.3859 -45.7532 -22.5679 -11.2049 -30.6107 -19.1393 -12.5812 
-29.3363 -19.1393 -11.2049 -44.8964 -19.1393 -11.4864 -45.0994 -19.1393 -11.2049 
-30.6107 -15.7108 -11.3229 -30.5151 -15.7108 -11.2049 -42.0393 -15.7108 -11.9895 
-42.6662 -15.7108 -11.2049 -44.8964 -18.8015 -11.2049 -30.6107 -15.5913 -11.2049 
-33.4678 -13.2513 -11.2049 -36.325 -12.2822 -11.2711 -36.1829 -12.2822 -11.2049 
-36.4671 -12.2822 -11.2049 -39.1821 -13.2197 -11.2049 -42.0393 -15.0843 -11.2049 
-36.325 -12.2286 -11.2049 -30.6107 -43.1394 -9.16259 -30.6107 -44.1171 -8.34776 
-29.5626 -43.1394 -8.34776 -33.4678 -43.1394 -9.77633 -33.4678 -44.8536 -8.34776 
-36.325 -43.1394 -9.16259 -36.325 -44.1171 -8.34776 -37.4278 -43.1394 -8.34776 
-27.7536 -39.7108 -8.87665 -27.7536 -40.5612 -8.34776 -27.3485 -39.7108 -8.34776 
-39.1821 -39.7108 -9.71808 -39.1821 -41.4251 -8.34776 -40.5524 -39.7108 -8.34776 
-27.7536 -36.2822 -9.52878 -26.8968 -36.2822 -8.34776 -42.0393 -36.2822 -9.34632 
-42.0393 -37.5399 -8.34776 -42.7506 -36.2822 -8.34776 -27.7536 -32.8536 -9.52878 
-26.8968 -32.8536 -8.34776 -44.1151 -32.8536 -8.34776 -27.7536 -29.4251 -9.52878 
-26.8968 -29.4251 -8.34776 -44.8964 -31.0308 -8.34776 -44.8964 -29.4251 -9.52324 
-45.559 -29.4251 -8.34776 -27.7536 -25.9965 -9.52878 -26.8968 -25.9965 -8.34776 
-46.2022 -25.9965 -8.34776 -27.7536 -22.5679 -9.52878 -26.8968 -22.5679 -8.34776 
-46.2022 -22.5679 -8.34776 -27.7536 -19.1393 -8.79397 -27.4606 -19.1393 -8.34776 
-45.3813 -19.1393 -8.34776 -27.7536 -18.6039 -8.34776 -29.3918 -15.7108 -8.34776 
-43.1987 -15.7108 -8.34776 -44.8964 -18.3108 -8.34776 -30.6107 -14.2481 -8.34776 
-33.4678 -12.2822 -9.44197 -32.7774 -12.2822 -8.34776 -39.1821 -12.2822 -8.48987 
-39.2483 -12.2822 -8.34776 -42.0393 -14.4218 -8.34776 -33.4678 -11.7003 -8.34776 
-36.325 -11.04 -8.34776 -39.1821 -12.2286 -8.34776 -33.4678 -46.5679 -6.30142 
-33.4678 -47.1903 -5.49062 -31.5491 -46.5679 -5.49062 -35.3866 -46.5679 -5.49062 
-27.7536 -43.1394 -6.19933 -27.7536 -43.7184 -5.49062 -27.3164 -43.1394 -5.49062 
-30.6107 -46.2274 -5.49062 -36.325 -46.2274 -5.49062 -39.1821 -43.1394 -6.49681 
-39.1821 -43.948 -5.49062 -39.915 -43.1394 -5.49062 -26.0265 -39.7108 -5.49062 
-42.0393 -39.7108 -6.19933 -42.0393 -40.3455 -5.49062 -42.4443 -39.7108 -5.49062 
-25.9048 -36.2822 -5.49062 -43.6241 -36.2822 -5.49062 -26.2022 -32.8536 -5.49062 
-44.7234 -32.8536 -5.49062 -26.325 -29.4251 -5.49062 -44.8964 -32.2267 -5.49062 
-45.5904 -29.4251 -5.49062 -26.325 -25.9965 -5.49062 -45.7532 -25.9965 -5.49062 
-26.4477 -22.5679 -5.49062 -45.3014 -22.5679 -5.49062 -27.2686 -19.1393 -5.49062 
-44.8964 -19.1393 -7.40493 -43.8213 -19.1393 -5.49062 -44.8964 -21.5919 -5.49062 
-27.7536 -18.3108 -5.49062 -29.3918 -15.7108 -5.49062 -42.1349 -15.7108 -5.49062 
89.3893 -13.1641 -5.49062 89.3893 -12.2822 -5.66625 89.2044 -12.2822 -5.49062 
-30.6107 -14.2481 -5.49062 -33.0216 -12.2822 -5.49062 -39.1821 -12.2822 -8.20565 
-37.4192 -12.2822 -5.49062 -39.1821 -13.2513 -5.49062 -42.0393 -15.5913 -5.49062 
89.3893 -11.4003 -5.49062 -33.4678 -11.9307 -5.49062 -36.325 -11.7003 -5.49062 
-33.4678 -46.5679 -3.25509 -27.7536 -43.4032 -2.63347 -27.4991 -43.1394 -2.63347 
-30.6107 -45.2778 -2.63347 -33.4678 -46.3562 -2.63347 -36.325 -45.2778 -2.63347 
-39.1821 -43.519 -2.63347 -39.5831 -43.1394 -2.63347 -25.1908 -39.7108 -2.63347 
-42.0393 -40.0486 -2.63347 -42.2423 -39.7108 -2.63347 -24.8964 -36.2822 -2.81837 
-24.8964 -37.0869 -2.63347 -24.8115 -36.2822 -2.63347 -43.0166 -36.2822 -2.63347 
-24.8964 -36.0603 -2.63347 -25.9048 -32.8536 -2.63347 -43.3137 -32.8536 -2.63347 
-26.325 -29.4251 -2.63347 -44.8964 -29.4251 -4.4763 -43.4678 -29.4251 -2.63347 
-26.4477 -25.9965 -2.63347 -44.8964 -25.9965 -4.3096 -43.4156 -25.9965 -2.63347 
-27.162 -22.5679 -2.63347 -44.8964 -22.5679 -4.96172 -42.6662 -22.5679 -2.63347 
89.3893 -20.821 -2.63347 89.3893 -19.1393 -3.19442 88.9112 -19.1393 -2.63347 
-27.7536 -21.2763 -2.63347 -27.7536 -19.1393 -4.54778 -28.8684 -19.1393 -2.63347 
-42.0393 -19.1393 -3.5585 -41.0292 -19.1393 -2.63347 -42.0393 -21.2549 -2.63347 
88.3943 -15.7108 -2.63347 89.3893 -15.7108 -4.62715 -30.6107 -15.9683 -2.63347 
-30.6107 -15.7108 -2.91744 -30.8947 -15.7108 -2.63347 -42.0393 -15.7108 -5.37259 
-39.3002 -15.7108 -2.63347 88.2006 -12.2822 -2.63347 -33.4678 -14.2481 -2.63347 
-33.4678 -12.2822 -5.0444 -36.325 -14.2481 -2.63347 -36.325 -12.2822 -4.80015 
-39.1821 -15.5913 -2.63347 89.3893 -8.85364 -4.62715 88.3943 -8.85364 -2.63347 
88.9112 -5.42506 -2.63347 89.3893 -5.42506 -3.19442 89.3893 -3.74341 -2.63347 
-27.7536 -43.1394 -2.35193 -30.6107 -43.1394 -0.701354 -33.4678 -43.1394 0.0471983 
-36.325 -43.1394 -0.701354 -39.1821 -43.1394 -2.23247 -27.7536 -40.4631 0.223669 
-26.969 -39.7108 0.223669 -30.6107 -41.8739 0.223669 -33.4678 -42.8303 0.223669 
-36.325 -41.7395 0.223669 -39.1821 -40.0486 0.223669 -42.0393 -39.7108 -2.35193 
-39.4637 -39.7108 0.223669 -24.8964 -36.2822 -2.21673 -25.482 -36.2822 0.223669 
-42.0393 -36.2822 -1.3858 -40.3631 -36.2822 0.223669 -26.0265 -32.8536 0.223669 
-42.0393 -32.8536 -1.25717 -40.3631 -32.8536 0.223669 -26.4477 -29.4251 0.223669 
-42.0393 -29.4251 -1.2049 -40.3631 -29.4251 0.223669 89.3893 -27.2763 0.223669 
89.3893 -25.9965 -0.337277 88.9112 -25.9965 0.223669 -27.162 -25.9965 0.223669 
-42.0393 -25.9965 -1.35903 -39.8726 -25.9965 0.223669 88.3943 -22.5679 0.223669 
89.3893 -22.5679 -1.77001 -27.7536 -24.8521 0.223669 -27.7536 -22.5679 -1.6798 
-29.3857 -22.5679 0.223669 -39.1821 -22.5679 -0.377504 -38.2664 -22.5679 0.223669 
-39.1821 -24.4323 0.223669 -42.0393 -22.5679 -2.11142 88.2006 -19.1393 0.223669 
-30.6107 -20.9387 0.223669 -30.6107 -19.1393 -0.891128 -32.525 -19.1393 0.223669 
-39.1821 -19.1393 -1.2049 -36.7955 -19.1393 0.223669 88.2006 -15.7108 0.223669 
-33.4678 -18.3108 0.223669 -33.4678 -15.7108 -1.41453 -36.325 -18.6039 0.223669 
-36.325 -15.7108 -1.41453 -39.1821 -15.7108 -2.53784 88.2006 -12.2822 0.223669 
88.2006 -8.85364 0.223669 88.2006 -5.42506 0.223669 63.675 -5.42506 -0.367908 
63.675 -6.71674 0.223669 64.5814 -5.42506 0.223669 60.8179 -5.42506 -0.470274 
60.8179 -8.22667 0.223669 59.8036 -5.42506 0.223669 89.3893 -1.9965 -1.77001 
88.3943 -1.9965 0.223669 66.5322 -1.9965 0.113117 66.5322 -2.23434 0.223669 
66.6427 -1.9965 0.223669 63.675 -1.9965 -1.08215 60.8179 -1.9965 -0.633074 
59.6369 -1.9965 0.223669 88.9112 1.43208 0.223669 89.3893 1.43208 -0.337277 
66.5322 1.43208 -0.345451 67.1013 1.43208 0.223669 63.675 1.43208 -1.2049 
60.8179 1.43208 -0.633074 59.6369 1.43208 0.223669 89.3893 2.71183 0.223669 
66.5322 4.86065 -0.345451 67.1013 4.86065 0.223669 63.675 4.86065 -1.2049 
60.8179 4.86065 -0.633074 59.6369 4.86065 0.223669 66.5322 8.28922 -0.345451 
67.1013 8.28922 0.223669 63.675 8.28922 -1.08215 60.8179 8.28922 -0.261243 
60.1274 8.28922 0.223669 66.5322 11.7178 -0.14605 66.9156 11.7178 0.223669 
63.675 11.7178 -0.367908 62.5986 11.7178 0.223669 60.8179 9.42062 0.223669 
66.5322 12.6911 0.223669 63.675 12.8054 0.223669 -27.7536 -39.7108 0.745724 
-30.6107 -39.7108 1.50957 -33.4678 -39.7108 1.5211 -36.325 -39.7108 1.23203 
-39.1821 -39.7108 0.426666 -27.7536 -36.2822 2.1395 -30.483 -36.2822 3.08081 
-30.6107 -36.366 3.08081 -33.4678 -36.2822 2.41818 -30.771 -36.2822 3.08081 
-36.325 -36.2822 1.775 -39.1821 -36.2822 1.08041 -27.7536 -33.4619 3.08081 
-27.525 -32.8536 3.08081 -33.4678 -34.2709 3.08081 -36.325 -32.8536 2.07245 
-34.3246 -32.8536 3.08081 -39.1821 -32.8536 1.08041 89.3893 -30.0982 3.08081 
89.3893 -29.4251 2.01435 88.9112 -29.4251 3.08081 -27.643 -29.4251 3.08081 
-36.325 -29.4251 2.22407 -34.8964 -29.4251 3.08081 -39.1821 -29.4251 1.08041 
88.2006 -25.9965 3.08081 -27.7536 -29.1872 3.08081 -27.7536 -25.9965 1.13003 
-29.9414 -25.9965 3.08081 -36.325 -25.9965 1.95074 -34.0018 -25.9965 3.08081 
-39.1821 -25.9965 0.70858 88.2006 -22.5679 3.08081 -30.6107 -25.3326 3.08081 
-30.6107 -22.5679 1.23308 -33.4678 -25.3557 3.08081 -33.4678 -22.5679 1.95074 
[...]
POINT_DATA 1279
SCALARS scalars unsigned_short
LOOKUP_TABLE default
1 1 1 1 1 1 1 1 1 
1 1 1 1 1 1 1 1 1 
1 1 1 1 1 1 1 1 1 
1 1 1 1 1 1 1 1 1 
1 1 1 1 1 1 1 1 1 
1 1 1 1 1 1 1 1 1 
1 1 1 1 1 1 1 1 1 
1 1 1 1 1 1 1 1 1 
1 1 1 1 1 1 1 1 1 
1 1 1 1 1 1 1 1 1 
1 1 1 1 1 1 1 1 1 
1 1 1 1 1 1 1 1 1 
1 1 1 1 1 1 1 1 1 
1 1 1 1 1 1 1 1 1 
1 1 1 1 1 1 1 1 1 
1 1 1 1 1 1 1 1 1 
1 1 1 1 1 1 1 1 1 
1 1 1 1 1 1 1 1 1 
1 1 1 1 1 1 1 1 1 
1 1 1 1 1 1 1 1 1 
1 1 1 1 1 1 1 1 1 
1 1 1 1 1 1 1 1 1 
1 1 1 1 1 1 1 1 1 
1 1 1 1 1 1 1 1 1 
1 1 1 1 1 1 1 1 1 
1 1 1 1 1 1 1 1 1 
1 1 1 1 1 1 1 1 1 
1 1 1 1 1 1 1 1 1 
1 1 1 1 1 1 1 1 1 
1 1 1 1 1 1 1 1 1 
1 1 1 1 1 1 1 1 1 
1 1 1 1 1 1 1 1 1 
1 1 1 1 1 1 1 1 1 
1 1 1 1 1 1 1 1 1 
1 1 1 1 1 1 1 1 1 
1 1 1 1 1 1 1 1 1 
1 1 1 1 1 1 1 1 1 
1 1 1 1 1 1 1 1 1 
1 1 1 1 1 1 1 1 1 
1 1 1 1 1 1 1 1 1 
1 1 1 1 1 1 1 1 1 
1 1 1 1 1 1 1 1 1 
1 1 1 1 1 1 1 1 1 
1 1 1 1 1 1 1 1 1 
1 1 1 1 1 1 1 1 1 
1 1 1 1 1 1 1 1 1 
1 1 1 1 1 1 1 1 1 
1 1 1 1 1 1 1 1 1 
1 1 1 1 1 1 1 1 1 
1 1 1 1 1 1 1 1 1 
1 1 1 1 1 1 1 1 1 
1 1 1 1 1 1 1 1 1 
1 1 1 1 1 1 1 1 1 
1 1 1 1 1 1 1 1 1 
1 1 1 1 1 1 1 1 1 
1 1 1 1 1 1 1 1 1 
1 1 1 1 1 1 1 1 1 
1 1 1 1 1 1 1 1 1 
1 1 1 1 1 1 1 1 1 
1 1 1 1 1 1 1 1 1 
1 1 1 1 1 1 1 1 1 
1 1 1 1 1 1 1 1 1 
1 1 1 1 1 1 1 1 1 
1 1 1 1 1 1 1 1 1 
1 1 1 1 1 1 1 1 1 
1 1 1 1 1 1 1 1 1 
1 1 1 1 1 1 1 1 1 
1 1 1 1 1 1 1 1 1 
1 1 1 1 1 1 1 1 1 
1 1 1 1 1 1 1 1 1 
1 1 1 1 1 1 1 1 1 
1 1 1 1 1 1 1 1 1 
1 1 1 1 1 1 1 1 1 
1 1 1 1 1 1 1 1 1 
1 1 1 1 1 1 1 1 1 
1 1 1 1 1 1 1 1 1 
1 1 1 1 1 1 1 1 1 
1 1 1 1 1 1 1 1 1 
1 1 1 1 1 1 1 1 1 
1 1 1 1 1 1 1 1 1 
1 1 1 1 1 1 1 1 1 
1 1 1 1 1 1 1 1 1 
1 1 1 1 1 1 1 1 1 
1 1 1 1 1 1 1 1 1 
1 1 1 1 1 1 1 1 1 
1 1 1 1 1 1 1 1 1 
1 1 1 1 1 1 1 1 1 
1 1 1 1 1 1 1 1 1 
1 1 1 1 1 1 1 1 1 
1 1 1 1 1 1 1 1 1 
1 1 1 1 1 1 1 1 1 
1 1 1 1 1 1 1 1 1 
1 1 1 1 1 1 1 1 1 
1 1 1 1 1 1 1 1 1 
1 1 1 1 1 1 1 1 1 
1 1 1 1 1 1 1 1 1 
1 1 1 1 1 1 1 1 1 
1 1 1 1 1 1 1 1 1 
1 1 1 1 1 1 1 1 1 
1 1 1 1 1 1 1 1 1 
1 1 1 1 1 1 1 1 1 
1 1 1 1 1 1 1 1 1 
1 1 1 1 1 1 1 1 1 
1 1 1 1 1 1 1 1 1 
1 1 1 1 1 1 1 1 1 
1 1 1 1 1 1 1 1 1 
1 1 1 1 1 1 1 1 1 
1 1 1 1 1 1 1 1 1 
1 1 1 1 1 1 1 1 1 
1 1 1 1 1 1 1 1 1 
1 1 1 1 1 1 1 1 1 
1 1 1 1 1 1 1 1 1 
1 1 1 1 1 1 1 1 1 
1 1 1 1 1 1 1 1 1 
1 1 1 1 1 1 1 1 1 
1 1 1 1 1 1 1 1 1 
1 1 1 1 1 1 1 1 1 
1 1 1 1 1 1 1 1 1 
1 1 1 1 1 1 1 1 1 
1 1 1 1 1 1 1 1 1 
1 1 1 1 1 1 1 1 1 
1 1 1 1 1 1 1 1 1 
1 1 1 1 1 1 1 1 1 
1 1 1 1 1 1 1 1 1 
1 1 1 1 1 1 1 1 1 
1 1 1 1 1 1 1 1 1 
1 1 1 1 1 1 1 1 1 
1 1 1 1 1 1 1 1 1 
1 1 1 1 1 1 1 1 1 
1 1 1 1 1 1 1 1 1 
1 1 1 1 1 1 1 1 1 
1 1 1 1 1 1 1 1 1 
1 1 1 1 1 1 1 1 1 
1 1 1 1 1 1 1 1 1 
1 1 1 1 1 1 1 1 1 
1 1 1 1 1 1 1 1 1 
1 1 1 1 1 1 1 1 1 
1 1 1 1 1 1 1 1 1 
1 1 1 1 1 1 1 1 1 
1 1 1 1 1 1 1 1 1 
1 1 1 1 1 1 1 1 1 
1 1 1 1 1 1 1 1 1 
1 
NORMALS normals float
-0.334366 0.289007 0.897036 -0.304587 0.309435 0.90082 -0.385721 0.267821 0.882888 
0.174665 0.385441 0.90605 0.179423 0.409332 0.89457 0.285482 0.39653 0.872504 
-0.430878 0.10121 0.896717 -0.565562 0.0733606 0.821436 0.0347538 0.205859 0.977964 
0.425808 0.353889 0.832737 0.387192 0.317177 0.865726 0.475006 0.344798 0.809619 
-0.498684 0.062972 0.864494 -0.610299 0.0234252 0.791825 -0.0852294 0.201706 0.975731 
0.249663 0.200684 0.947309 0.548135 0.284527 0.786507 0.526635 0.245945 0.813736 
0.568306 0.249499 0.784078 -0.590087 0.0468841 0.805977 -0.667682 0.0147079 0.744301 
-0.0885586 0.147817 0.985042 0.32293 0.0569894 0.944706 0.51223 -0 0.858848 
0.612518 -0 0.790456 -0.58455 -0.144355 0.798413 -0.666932 -0.116449 0.735963 
-0.0665423 -0.222765 0.972599 0.378342 -0.208807 0.901807 0.555476 -0.276148 0.78434 
0.589419 -0.28229 0.7569 -0.473979 -0.484482 0.735269 -0.483926 -0.481271 0.730886 
-0.0313877 -0.576675 0.816371 0.3735 -0.560407 0.739217 0.411936 -0.567479 0.712935 
0.569648 -0.338783 0.748818 -0.473042 -0.493913 0.729576 -0.0252261 -0.664806 0.74659 
0.374265 -0.590646 0.714887 -0.427393 0.370352 0.824727 -0.424181 0.391564 0.816546 
-0.455826 0.365227 0.811685 -0.030886 0.44486 0.895067 -0.0209104 0.529427 0.848098 
0.326143 0.474521 0.817594 0.332415 0.500445 0.799409 0.389095 0.487316 0.781746 
-0.511445 0.148776 0.846339 -0.626309 0.1081 0.772044 -0.145643 0.345593 0.927013 
0.206444 0.412845 0.887096 0.510604 0.449745 0.732812 0.471238 0.419932 0.775624 
0.543997 0.433951 0.71816 -0.639089 0.0649915 0.766382 -0.69709 0.0215554 0.716659 
0.448803 0.373197 0.811973 0.654984 0.37682 0.654984 0.646843 0.363853 0.670228 
0.670228 0.363853 0.646843 -0.690544 0.0205808 0.722997 -0.723135 0.00646464 0.690676 
0.60029 0.349966 0.719149 0.719149 0.349966 0.60029 -0.694715 -0 0.719285 
-0.72315 -0 0.690691 0.7897 0.251288 0.559668 0.791173 0.286215 0.540487 
0.821579 0.248315 0.513173 -0.703269 -0.00635522 0.710895 -0.722997 -0.0205808 0.690544 
0.814412 -0.0173093 0.580029 0.901042 -0.0259101 0.432956 -0.72287 -0.120984 0.68031 
-0.758442 -0.157327 0.632467 0.839481 -0.365605 0.402001 0.853692 -0.368669 0.367821 
-0.71981 -0.473978 0.507167 -0.723806 -0.476928 0.498642 0.627308 -0.629465 0.45854 
0.666655 -0.648449 0.367538 0.842943 -0.393737 0.366631 -0.718206 -0.486215 0.49777 
-0.442481 -0.734325 0.51476 -0 -0.829437 0.558601 -0.0211888 -0.831123 0.555685 
0.0212257 -0.833317 0.552388 0.433742 -0.783615 0.444764 0.632697 -0.675657 0.378394 
-0 -0.832061 0.554684 -0.389431 0.589892 0.707369 -0.397483 0.623668 0.673087 
-0.511741 0.561075 0.650628 -0 0.631003 0.77578 -0 0.684799 0.728732 
0.375146 0.604434 0.702798 0.384777 0.632731 0.672011 0.480574 0.592521 0.646504 
-0.759092 0.272672 0.591125 -0.75322 0.32409 0.572385 -0.78669 0.265922 0.55714 
0.5755 0.499264 0.647716 0.603084 0.530969 0.595283 0.647716 0.499264 0.5755 
-0.791066 0.0675583 0.607989 -0.857127 0.0632691 0.511204 0.722044 0.436298 0.536932 
0.736398 0.451946 0.503452 0.783013 0.423933 0.455161 -0.807589 -0 0.589746 
-0.879693 -0 0.475542 0.844625 0.388204 0.368656 -0.814167 -0 0.580631 
-0.889025 -0 0.457859 0.875184 0.364842 0.317714 0.842768 0.351038 0.408063 
0.909879 0.315128 0.269843 -0.814167 -0 0.580631 -0.889025 -0 0.457859 
0.9913 0.108293 0.0748069 -0.821878 -0.0656688 0.565866 -0.898291 -0.0822511 0.431634 
0.988348 -0.132687 -0.074584 -0.869008 -0.317311 0.379657 -0.882726 -0.335459 0.329032 
0.890028 -0.415354 -0.187968 -0.873329 -0.372962 0.313361 -0.790384 -0.588782 0.1692 
0.767032 -0.63594 -0.0851073 0.865954 -0.467081 -0.178771 -0.737633 -0.655213 0.163077 
-0.482755 -0.814405 0.322012 -0.562538 -0.805233 0.187485 0.552388 -0.833317 0.0212257 
0.55844 -0.829545 -0 0.710012 -0.702532 -0.0482865 -0.493799 -0.847203 0.195985 
0.0855583 -0.992653 0.0855583 0.554684 -0.832061 -0 -0 0.912735 0.408552 
-0 0.969735 0.244162 -0.357334 0.914109 0.191617 0.357334 0.914109 0.191617 
-0.77134 0.54651 0.326132 -0.780988 0.582186 0.226092 -0.806076 0.539658 0.242921 
-0.512139 0.844056 0.159007 0.509015 0.845879 0.15935 0.679621 0.635685 0.366087 
0.701867 0.678847 0.215753 0.722636 0.650808 0.232907 -0.903956 0.202477 0.376653 
0.811628 0.495961 0.308678 0.82945 0.510096 0.227631 0.850614 0.477692 0.219698 
-0.923304 -0.0352269 0.382452 0.936705 0.347795 0.0402831 -0.975039 -0.0776417 0.208017 
0.937015 0.321082 -0.137508 -0.992659 -0.0236246 0.11862 0.938989 0.29557 -0.175893 
0.934833 0.149663 -0.322007 -0.995611 -0.0236948 0.0905389 0.900603 -0.0405808 -0.432745 
-0.986561 -0.157118 -0.0448433 0.821579 -0.248315 -0.513173 -0.887636 -0.414238 -0.201267 
0.85233 -0.421372 -0.309805 0.743009 -0.369315 -0.558161 0.795984 -0.290003 -0.531327 
-0.863535 -0.463664 -0.198302 -0.773625 -0.60482 -0.188937 0.708264 -0.524213 -0.472825 
0.778532 0.0697867 0.623713 0.780435 -0 0.625237 0.801446 -0 0.598068 
-0.717617 -0.668981 -0.193623 -0.434862 -0.827087 -0.356122 0.555685 -0.831123 -0.0211888 
0.322012 -0.814405 -0.482755 0.51317 -0.736258 -0.441114 0.703747 -0.531505 -0.471425 
0.778532 -0.0697867 0.623713 -0.378013 -0.845111 -0.378013 0.195985 -0.847203 -0.493799 
0 0.912354 -0.409402 -0.63421 0.675604 -0.375948 -0.65211 0.665314 -0.363469 
-0.419616 0.735515 -0.531921 0 0.825584 -0.564279 0.413768 0.737687 -0.533492 
0.591196 0.698749 -0.402786 0.615107 0.685183 -0.390087 -0.93989 0.339325 -0.0382887 
0.838978 0.412833 -0.354521 0.849444 0.388322 -0.357283 -0.980275 -0.132682 0.146482 
-0.994697 -0.0323981 0.0976166 -0.98225 -0.13763 0.127447 0.868822 0.152728 -0.470981 
-0.981229 -0.14818 0.123417 -0.968636 -0.244496 0.0443477 0.792793 0.0672312 -0.605772 
-0.994677 -0.0990509 -0.0284071 0.8751 0.115817 -0.46988 0.735505 0.0143616 -0.677367 
-0.976106 -0.13911 -0.166932 0.820427 -0.0518468 -0.569396 0.698715 -0.0872926 -0.710055 
-0.843255 -0.329931 -0.424342 0.790784 -0.250716 -0.558393 0.626905 -0.252465 -0.737056 
0.778573 0.258934 0.571645 0.797949 0.234956 0.555044 0.858935 0.190846 0.475193 
-0.795086 -0.370214 -0.480396 -0.844557 -0.429672 -0.319538 -0.713239 -0.403314 -0.573261 
0.660125 -0.322231 -0.678529 0.62187 -0.299749 -0.723483 0.621613 -0.277998 -0.732335 
0.96548 0.100183 0.240439 0.805769 0.234802 0.543695 -0.595191 -0.539904 -0.595191 
-0.609826 -0.563029 -0.557773 -0.557773 -0.56303 -0.609826 0.704497 -0.521462 -0.481416 
0.499644 -0.497481 -0.709133 0.989224 -0 0.146409 -0.193623 -0.668981 -0.717617 
-0.356122 -0.827087 -0.434862 0.163077 -0.655213 -0.737633 0.187485 -0.805233 -0.562538 
0.490915 -0.507238 -0.708316 0.805769 -0.234802 0.543695 0.96548 -0.100183 0.240439 
0.858935 -0.190846 0.475193 0.797949 -0.234956 0.555044 0.778573 -0.258934 0.571645 
-0.620829 0.669435 -0.407955 -0.313558 0.606613 -0.730549 0 0.538667 -0.842519 
0.312522 0.594213 -0.741108 0.57531 0.682734 -0.450436 -0.436031 0.519667 -0.734727 
-0.514398 0.478531 -0.711619 -0.23889 0.548531 -0.801277 0.0032646 0.518374 -0.855148 
0.256447 0.484206 -0.836528 0.465517 0.38125 -0.798713 0.8351 0.38401 -0.393884 
0.488387 0.354825 -0.797231 -0.991802 -0.120507 0.0425173 -0.840953 0.0552828 -0.538276 
0.785843 0.110032 -0.608559 0.594372 0.0851502 -0.79967 -0.949402 -0.154998 -0.27315 
0.725574 0.0218235 -0.687798 0.602606 -0 -0.798039 -0.957366 -0.184011 -0.222689 
0.694507 -0.0141984 -0.719346 0.604606 -0.0471943 -0.795125 0.786797 0.321283 0.526999 
0.791589 0.264962 0.55062 0.852635 0.224735 0.471707 -0.827915 -0.352628 -0.436131 
0.649992 -0.118226 -0.750688 0.556446 -0.182765 -0.810534 0.96548 0.100183 0.240439 
0.800178 0.261151 0.539922 -0.760759 -0.407761 -0.504951 -0.774889 -0.39067 -0.496914 
-0.573084 -0.485021 -0.660552 0.543952 -0.252778 -0.800137 0.510451 -0.249041 -0.823055 
0.540223 -0.224467 -0.811033 0.599973 -0.257355 -0.757496 0.993291 0.029279 0.111876 
-0.508023 -0.465753 -0.724559 -0.56725 -0.424419 -0.705759 -0.31363 -0.463133 -0.828941 
0.566198 -0.269753 -0.778879 0.357095 -0.362976 -0.860658 0.999375 -0 0.03535 
-0.19527 -0.488679 -0.850331 -0.188937 -0.60482 -0.773625 0.296818 -0.405056 -0.864771 
0.1692 -0.588782 -0.790384 0.491793 -0.498538 -0.713863 1 -0 -0 
0.999375 -0 0.03535 0.993291 -0.029279 0.111876 -0.318459 0.345393 0.882773 
-0.381717 0.385928 0.839852 -0.443799 0.388595 0.807487 0.30996 0.150298 0.938795 
0.143511 0.297144 0.943986 0.461439 0.1164 0.879503 0.800178 -0.261151 0.539922 
0.96548 -0.100183 0.240439 -0.674996 0.26029 0.690383 -0.680373 0.272372 0.680373 
-0.690383 0.26029 0.674996 -0.105381 0.140304 0.984484 0.432956 0.0259101 0.901042 
0.567009 0.0169207 0.823538 0.852635 -0.224735 0.471707 0.791589 -0.264962 0.55062 
-0.652198 0.0631456 0.755414 -0.755414 0.0631456 0.652198 -0.0374911 0.0237758 0.999014 
0.457859 -0 0.889025 0.580631 -0 0.814167 0.786797 -0.321283 0.526999 
-0.653502 -0 0.756925 -0.756925 -0 0.653502 -0.0374911 -0.0237758 0.999014 
0.457147 -0.0557512 0.887642 0.579954 -0.0482682 0.813218 -0.632616 -0.0296176 0.773899 
-0.742849 -0.0266203 0.668929 0.0238027 -0.14105 0.989716 0.473925 -0.243328 0.846278 
0.527016 -0.230727 0.817936 -0.524382 -0.222276 0.821959 -0.613109 -0.218999 0.759036 
0.221145 -0.386916 0.895204 0.333113 -0.43078 0.838728 0.494605 -0.314658 0.810158 
-0.497037 -0.330323 0.802397 0.269994 -0.471424 0.839561 -0.423119 0.486596 -0.764326 
-0.134 0.487219 -0.862938 0.0597853 0.34752 -0.935765 0.199629 0.333565 -0.921348 
0.461508 0.357033 -0.81212 -0.494577 0.31936 -0.808334 -0.0497847 0.432215 -0.900395 
-0.033317 0.435051 -0.899789 0.261434 0.314242 -0.912636 -0.0147915 0.429587 -0.902904 
0.265717 0.147038 -0.952772 0.473618 0.0898659 -0.876134 -0.601276 0.182332 -0.77796 
-0.651233 0.136829 -0.74644 0.367003 0.268576 -0.890604 0.431748 0.0790199 -0.898526 
0.4332 0.187783 -0.881519 0.51223 -0 -0.858848 0.817222 0.473708 0.32825 
0.802789 0.448091 0.393376 0.872842 0.402406 0.276073 -0.698557 -0.213416 -0.682988 
0.492958 -0.0185311 -0.869856 0.47501 -0.020937 -0.879731 0.527404 -0.0532579 -0.847944 
0.989422 0.0928671 0.111441 -0.68706 -0.229086 -0.689542 -0.752663 -0.396845 -0.525369 
-0.347547 -0.457685 -0.818374 0.45491 -0.143698 -0.878867 0.318197 -0.282311 -0.905014 
0.524356 -0.189492 -0.830147 0.999375 -0 0.03535 -0.270834 -0.470755 -0.839666 
-0.438657 -0.510239 -0.739754 0.240831 -0.331698 -0.912128 0.00257525 -0.396065 -0.918219 
0.39158 -0.224518 -0.892332 1 -0 -0 -0.196726 -0.456681 -0.867607 
0.311061 -0.374749 -0.873386 1 -0 -0 -0.31467 0.404263 0.858809 
-0.380337 0.444724 0.810904 -0.440021 0.43939 0.783146 0.307791 0.190317 0.932225 
0.186834 0.306666 0.9333 0.469225 0.156838 0.869039 1 -0 -0 
-0.613671 0.376706 0.693903 -0.633016 0.388632 0.669519 -0.646 0.374238 0.665304 
-0.0853782 0.326638 0.941286 0.474675 0.0891471 0.875635 0.611765 0.0408801 0.789983 
1 -0 -0 -0.514759 0.394456 0.761202 -0.700392 0.376461 0.606406 
0.0968364 0.322638 0.941556 0.605772 0.0672312 0.792793 0.687798 0.0218235 0.725574 
1 -0 -0 -0.768872 0.370012 0.521466 -0.787861 0.362037 0.498201 
-0.838566 0.328097 0.434924 0.677288 0.0209344 0.73542 0.719403 0.00650102 0.694562 
0.999375 -0 0.03535 -0.964748 0.137491 0.224406 0.690691 -0 0.72315 
0.72315 -0 0.690691 0.989422 -0.0928671 0.111441 -0.987622 0.0235047 0.155082 
0.690691 -0 0.72315 0.72315 -0 0.690691 0.802789 -0.448091 0.393376 
0.872842 -0.402406 0.276073 -0.987895 -0 0.155124 0.690438 -0.02704 0.722886 
0.722886 -0.02704 0.690438 0.817222 -0.473708 0.32825 -0.987652 -0.00744869 0.15649 
0.673826 -0.173454 0.718242 0.734031 -0.175066 0.656164 -0.972951 -0.132387 0.189312 
0.491111 -0.48476 0.723753 0.641497 -0.491102 0.589322 0.660316 -0.456913 0.595998 
-0.509106 -0.653216 0.560464 -0.714962 -0.59323 0.370011 0.314249 -0.705974 0.634704 
0.392665 -0.720012 0.572187 0.51309 -0.617803 0.595867 -0.555594 -0.716243 0.422269 
0.290689 -0.784757 0.547409 -0.0319801 0.433019 -0.900817 -0.579299 0.509605 0.636173 
-0.591097 0.519392 0.61712 -0.606135 0.505454 0.614099 0.497542 0.271146 0.823973 
0.468024 0.384097 0.795879 0.595466 0.254258 0.762085 -0.619081 0.143779 -0.772053 
-0.0340676 0.194111 -0.980388 0.406188 0.218501 -0.887282 0.824911 0.463842 0.323068 
0.97194 0.201707 0.121024 -0.395668 0.169917 0.902538 -0.840706 0.13889 0.523377 
0.680146 -0.137552 0.720056 0.741203 -0.158329 0.652342 -0.683157 -0.212304 -0.69873 
-0.105715 -0.116051 -0.987601 0.39119 -0.0264532 -0.91993 0.999566 0.029464 -0 
-0.240603 -0.0937969 0.966081 -0.616516 0.0370651 0.78647 0.379383 -0.161085 0.911109 
0.706319 -0.170196 0.687129 -0.251612 -0.437445 -0.863327 0.276336 -0.306103 -0.91101 
1 -0 -0 -0.0325402 0.247962 0.968223 -0.434346 0.38766 0.813058 
0.42913 0.23354 0.872529 1 -0 -0 -0.58284 0.507285 0.634791 
-0.687052 0.46594 0.557548 -0.700476 0.527262 0.480965 0.10658 0.367145 0.924038 
0.758807 0.20963 0.616659 0.759318 0.230789 0.608418 0.803462 0.225749 0.550895 
1 -0 -0 -0.741063 0.489179 0.459923 -0.769996 0.506771 0.387673 
-0.780465 0.488392 0.390317 0.794088 0.0704633 0.603705 0.884581 0.0661696 0.461669 
1 -0 -0 -0.806575 0.388178 0.445819 0.807037 -0 0.590501 
0.889025 -0 0.457859 1 -0 -0 -0.808502 0.348303 0.474351 
-0.832973 0.353186 0.425929 -0.870395 0.301453 0.38928 0.811966 -0 0.583704 
0.889025 -0 0.457859 1 -0 -0 -0.977171 0.131186 0.167114 
0.814167 -0 0.580631 0.889025 -0 0.457859 1 -0 -0 
-0.99931 0.0237829 0.0285394 0.814167 -0 0.580631 0.889025 -0 0.457859 
0.999566 -0.029464 -0 -1 -0 -0 0.814167 -0 0.580631 
0.889025 -0 0.457859 0.97194 -0.201707 0.121024 -1 -0 -0 
0.81245 -0.0649155 0.579406 0.886094 -0.0811342 0.45635 0.824911 -0.463842 0.323068 
-1 -0 -0 0.846145 -0.309854 0.433623 0.859904 -0.326786 0.392143 
-0.996807 -0.0793317 0.00902129 0.666481 -0.501302 0.551815 0.783289 -0.583497 0.214452 
0.852654 -0.364133 0.374685 -0.903364 -0.42776 0.0309007 0.570733 -0.738222 0.359572 
0.611835 -0.754902 0.236179 0.732461 -0.650619 0.200491 -0.670247 -0.741059 0.0399958 
0.207301 -0.965542 0.15734 0.571737 -0.782156 0.247687 0.827365 0.479587 0.292341 
0.807494 0.494066 0.322262 0.88263 0.406918 0.235333 -0.747445 0.65927 0.0817851 
-0.876701 0.47689 0.0630272 0.363153 0.908026 0.208825 0.95055 0.259919 0.169993 
0.995007 0.0933913 0.0351955 -0.980544 0.183008 0.0710087 0.972914 -0.053038 0.225 
1 -0 -0 -0.909532 0.334482 0.246725 0.759861 -0.152748 0.631886 
0.905949 -0.0661569 0.418186 1 -0 -0 -0.803666 0.435319 0.405731 
-0.864754 0.419515 0.276056 -0.843989 0.435889 0.312542 0.779674 0.125696 0.61344 
0.917394 0.0599797 0.393435 1 -0 -0 -0.844415 0.480913 0.235977 
0.976973 0.078575 0.198366 1 -0 -0 -0.820804 0.530097 0.212786 
-0.79979 0.552505 0.234677 0.992659 0.0236246 0.11862 1 -0 -0 
-0.837705 0.410562 0.360124 -0.840891 0.449468 0.301466 -0.864179 0.403291 0.300917 
0.992936 -0 0.118653 1 -0 -0 -0.975289 0.155323 0.15712 
0.992936 -0 0.118653 1 -0 -0 -0.99931 0.0237829 0.0285394 
0.992936 -0 0.118653 1 -0 -0 -1 -0 -0 
0.992936 -0 0.118653 1 -0 -0 -1 -0 -0 
0.992936 -0 0.118653 0.995007 -0.0933913 0.0351955 -1 -0 -0 
0.991029 -0.0986876 0.0901222 0.807494 -0.494066 0.322262 0.88263 -0.406918 0.235333 
-1 -0 -0 0.918767 -0.394314 0.0195683 0.827365 -0.479587 0.292341 
-0.993512 -0.107323 -0.0376221 0.760752 -0.644249 -0.0787362 0.857842 -0.513902 -0.00346334 
-0.834174 -0.515025 -0.197239 0.604936 -0.768957 -0.206778 0.715292 -0.68842 -0.120153 
-0.674827 -0.690459 -0.260527 0.104617 -0.960279 -0.258689 0.558806 -0.799428 -0.220569 
0.833782 0.46883 0.291558 0.97194 0.201707 0.121024 -0.724898 0.575737 -0.378219 
-0.776908 0.498219 -0.384957 0.334197 0.875113 -0.349985 0.892414 0.327967 -0.309895 
0.999566 0.029464 -0 -0.934153 0.290989 -0.2066 0.988735 0.0596682 -0.137271 
1 -0 -0 -0.907902 0.418633 0.0214625 0.99813 0.00847265 0.0605449 
1 -0 -0 -0.890182 0.449923 0.0717266 -0.871963 0.468399 0.142419 
0.995566 -0 0.0940649 1 -0 -0 -0.822286 0.492706 0.284755 
0.999592 -0 0.0285475 1 -0 -0 -0.806871 0.513959 0.291215 
-0.776311 0.547152 0.312996 1 -0 -0 1 -0 -0 
-0.836912 0.473361 0.274786 -0.933656 0.31732 0.166119 1 -0 -0 
1 -0 -0 -0.996737 0.0755344 0.0284659 1 -0 -0 
1 -0 -0 -1 -0 -0 1 -0 -0 
1 -0 -0 -1 -0 -0 1 -0 -0 
1 -0 -0 -1 -0 -0 0.99931 -0.0237829 -0.0285394 
0.999566 -0.029464 -0 -1 -0 -0 0.974038 -0.163174 -0.156919 
0.97194 -0.201707 0.121024 -0.998809 -0.0312362 -0.0374835 0.844407 -0.439526 -0.306257 
0.833782 -0.46883 0.291558 -0.950693 -0.218032 -0.220555 0.661762 -0.660904 -0.353945 
0.818955 -0.481905 -0.311577 -0.594027 -0.632432 -0.497153 -0.594202 -0.648987 -0.475121 
-0.450609 -0.707616 -0.544271 0.542495 -0.77394 -0.326673 0.26544 -0.78949 -0.553395 
0.479305 -0.738288 -0.47455 0.630061 -0.684148 -0.367376 0.124621 -0.813224 -0.56845 
0.827088 0.552177 0.105007 0.819841 0.547339 0.168168 0.844648 0.525255 0.103331 
0.991869 0.122334 0.0350845 -0.697649 0.52227 -0.490429 0.340058 0.430701 -0.835977 
1 -0 -0 -0.639746 0.535671 -0.551163 -0.703097 0.538174 -0.464783 
0.379297 0.408319 -0.830306 0.779124 0.31142 -0.544043 1 -0 -0 
-0.83551 0.549339 0.0122098 0.983381 0.148592 -0.104316 1 -0 -0 
-0.837492 0.539191 0.0887781 -0.80103 0.573189 0.172644 0.999473 0.0324757 -0 
1 -0 -0 -0.792294 0.524018 0.312532 -0.76044 0.569816 0.311513 
-0.747361 0.565216 0.34926 1 -0 -0 1 -0 -0 